a-Si_512.lmp (written by ASE) 

512 	 atoms 
1  atom types
0.0      21.848392472848001  xlo xhi
0.0      21.848392472848001  ylo yhi
0.0      21.848392472848001  zlo zhi


Atoms 

     1   1      6.2025795871519964      5.5977329009999997      12.998744249848002
     2   1      21.310695325696006      5.6314021390000004      21.138156769999998
     3   1             19.53227111      6.1170443289999987      3.6946931128480021
     4   1      4.3702060328479995      14.026457675696001    0.089513787151997315
     5   1      10.193545072848002      7.4596719428480007             2.353224913
     6   1         17.507622529848      14.185747989999999      3.6795510328480017
     7   1         11.205626612848      15.916525939848002      15.048515343848003
     8   1      8.6045407249999997      19.897465765848001             21.00435495
     9   1      15.036400605696004      17.566050755696004             1.363668503
    10   1      12.045829333848001      3.3604330390000001      7.2715836969999996
    11   1      7.1338410128480039             17.41295667      18.049566588544007
    12   1      8.7338948128480016      6.3834460956960015      3.8479944728480002
    13   1      13.093625790000001      3.2496277528480046      3.5837232479999996
    14   1      11.320372552848001      7.2775120828480029      20.412589975696001
    15   1      19.776715729999999      8.9105456089999997     0.29986152715199804
    16   1      11.970830380000001      20.850800665696003      1.5141799728480014
    17   1      10.448448620000001             10.36501732      15.403951510000001
    18   1      9.2063111728480038      9.4669708828480008      10.224015667151997
    19   1       8.436595812848001      13.624534926848002         17.657743722848
    20   1      18.203278708544005      21.124015365696003     0.13887929569600355
    21   1      3.2975527328480005      19.575242435696001      14.740576289999998
    22   1      12.533566155696004      17.358670205696004      7.5971236656960022
    23   1      1.4041788928480017      18.106352995848003      3.1510779128480029
    24   1      17.744487864848001      13.153716954848001      16.794817485696004
    25   1      12.108084695696006      12.663444825696006      18.034038038848003
    26   1      8.7271848928480029      17.114330234848001         10.420017752848
    27   1      13.233399739999999         16.038512846848      13.920155227151994
    28   1             15.23564786      14.865507355696003      7.0143713671519965
    29   1      5.5195987428480002      20.866659635696003      19.926242937848002
    30   1      16.581708755696003      9.7471127456960005      15.171756638848002
    31   1      2.0506955128480033      13.856154105696005         21.801781426978
    32   1      21.267730985848001      20.897936425696003      13.675217385696001
    33   1      9.6905902556960033      6.7650543429999992     0.19547575339999998
    34   1      11.257260852848001      13.243989457151997      2.8196746528480023
    35   1      10.781371165696005      12.731583305696004      12.193136465696007
    36   1      16.263128578848001      7.4106940528480028      1.5352978971519982
    37   1      19.610576575696005      18.144123342848001         19.683928818544
    38   1      8.1796463828480022     0.12017878989999999      10.162702752848004
    39   1      17.052460822848001         20.421084890848      15.045089539999999
    40   1      12.369140269999999      12.671727598848003      4.8324894228480026
    41   1      7.8308580928480014      16.679395195848002      14.247529938848002
    42   1       1.679589812848002       9.950866652848001      1.2662744628480029
    43   1      16.616461875696004      14.657180637151999      13.279428640848003
    44   1      13.743027057152002      11.973390462848004      21.536095068448002
    45   1       5.258866677151997      15.184571890000001      9.5724175928480015
    46   1      20.599161445696001      14.794062885696002      20.414395719999998
    47   1      1.5639765071519984      16.807963239848004      13.044674509999998
    48   1      21.367696565696001      11.461574785696003      20.642862775696003
    49   1      14.589140507848001      5.9516141156960032      7.1961079356960065
    50   1             1.087284908      13.540863209999998      11.329621247152001
    51   1      6.2040646428480004      4.8969080549999999      16.942060063848004
    52   1     0.48039864284800171      4.1453058828480014     0.87080758679999992
    53   1      2.0124568928480011      5.7538354928480011      1.8951185928480017
    54   1      9.8458858469999999      19.132811485696006      7.3060549328480002
    55   1         18.375951804848      21.343454399999999      4.0944001910000001
    56   1      5.2900345228480008      6.5400972589999995             5.361992828
    57   1      1.4116284128480006      6.5762443556960051             4.057907063
    58   1      16.160042524847999      15.138887697151997      11.039199865696007
    59   1      21.067555885696006      18.383890812848001      8.6899993028480012
    60   1             18.02549638             17.77465608      1.4339126371519988
    61   1      19.057479135696003      16.219922545696001      6.6409394428480022
    62   1      5.1165290839999997      16.551671848848002      11.554073089999999
    63   1      14.482131375696005      7.8723762856960011      12.632156282848001
    64   1      11.798839697152001      10.970029305696002      13.542546807151997
    65   1      11.299099895696003      18.541032907151997      1.5738960328480032
    66   1      16.129248875696003      19.038957929848003      19.644426565696005
    67   1      6.0956288728480015      7.0575836671519996       9.653273482848002
    68   1      5.3885528650000003         20.254040897848      10.706015772848003
    69   1      17.916738790848001         18.907704092848      21.154605195696004
    70   1      13.077895206848002      2.1786660210000002      17.403367056848001
    71   1      8.0455607656960044             14.34434894      14.064390935696006
    72   1         14.438487226848      6.8775798771519963      14.695629618848002
    73   1     0.45635484430399381         21.618009455248      8.3670215028480026
    74   1      6.4347031279999998      16.972127220000001      21.732535349999999
    75   1      8.0525248171519941      4.0306660990000003      20.185451267151997
    76   1      6.8130410128480019      19.787497490848001      12.579102035847999
    77   1      19.048908975848001      10.848412285696002      6.0762942528480028
    78   1      2.2543774628480033      7.7369019828480017     0.53253586284800225
    79   1      16.392325744848002      9.0880387010000003      3.1425712649999999
    80   1      2.3624945670000002      2.5503033556960024      7.5693550419999989
    81   1      16.456519025696007      18.567562955696001      3.1113785971519943
    82   1      8.9561767860000003      21.083472359999998      12.301604467151996
    83   1      20.554422460000001      8.9275254171519975      5.9475727859999994
    84   1             13.59264735      8.4897244028480028      16.236183947151996
    85   1      9.5277858328480018         18.072584434848      3.0182552971519976
    86   1      11.368512309999998         15.387727181848      7.1311476328480028
    87   1      8.3668732771519956      13.395198417151999      11.861890640848001
    88   1      14.638799151392012      11.411393045696002      11.487186122848003
    89   1       8.471989102848001      16.066228835696002      2.4293868443039974
    90   1      8.2358947171520001      5.2203036479999998      18.170496407151997
    91   1      11.061902462848002      2.8759659850000001     0.41682594739999995
    92   1      14.083025940000001      1.3551606228480013              14.0192239
    93   1      20.560167230000001      4.1896884720000003      19.465975112848003
    94   1      4.6335227171519984             13.09778099      10.367711452848003
    95   1      19.986877025696007      15.566418187151998      11.786478222848002
    96   1      21.507574765696003      4.1863778109999998      14.836233015696003
    97   1      3.3002397928480001      11.205792020000001      2.5354291528480006
    98   1      19.269249485696001      21.024787568448001      10.911057992848002
    99   1         12.238214875696      19.465003280000001      19.899595080000001
   100   1       8.379500752848001      9.6665254271519974             14.54423321
   101   1      5.4523891828480027      19.166761501848001      5.6941636629999994
   102   1      15.872778825696004      15.414315686848001     0.30808373569600567
   103   1      6.9831718379999996      19.147817477151996     0.58325384140000003
   104   1      7.9759102689999999      18.342005867151997      8.5255436656960093
   105   1      13.970545039999999      6.7565123871519974      1.1858189399999999
   106   1      18.706088025696001      7.2106908350000003      9.2354162800000008
   107   1      3.2437712128480034      13.633641841848002      12.198465217151998
   108   1      1.9840204056960034             10.83398418      5.4640324528480022
   109   1      16.578214295696007      5.0407281828479995      11.450151785696002
   110   1      9.5132913628480029      6.2389489009999997      14.303596775696008
   111   1      14.198884359999999      4.0910676390000003         16.774997519848
   112   1      8.0162487228480011             3.560005452      2.0286151128480028
   113   1      7.9653815728480026      12.170037987151995      7.8051842699999998
   114   1     0.37747455284800024    0.032453482848003146      15.579034175696004
   115   1      19.087230768544007      17.569370079999999      12.623288809999998
   116   1      17.297732995696002      16.803583231848002      13.965811347151998
   117   1             6.718312364      10.588652302848002      19.579063127152001
   118   1      21.393492076848002      21.293289807151993      6.2414621599999993
   119   1      16.026530633848001      18.764474379848004      13.610661032848004
   120   1      3.1883438929999994      2.1992104628480011      18.569676542848004
   121   1      20.786625305696003      13.783899299999998      4.4869740971519985
   122   1      18.353559879999999      11.795541010000001      11.071248199999998
   123   1      19.321868025696006     0.49687044284800147      5.9636568228480025
   124   1      3.7259255628480008      13.411733947151994      18.484137188848003
   125   1      4.4280745420000001      4.9268931371519971         18.473886242848
   126   1      2.7043767228480009             21.76560873      15.293869920000001
   127   1      9.3638128470000002      14.323079399999999      3.7129225819999996
   128   1             20.57952658      3.3362475489999999      7.9316163228480008
   129   1      2.4065544328480009      4.1325129428480025         17.312263015848
   130   1     0.92120209649999996      2.6082881910000002      11.093109632848002
   131   1      13.790396285848001      9.5611265528480036      8.2494049656960051
   132   1      5.5217426628480029      8.6768265828480029      2.5593504128480031
   133   1      11.132190612848001      11.116075022848003      6.1313229939999996
   134   1      1.6180936128480012      6.5656433656960056      10.769440530000001
   135   1         21.048255146648      17.388434849999999      3.1245843771519963
   136   1      2.5962478656960037      13.343823658848001      3.3874401870000002
   137   1      1.8600928499999998             4.783067097      14.119406400000001
   138   1      1.2420402728480022      12.933519889999999      9.0766536528480035
   139   1      2.2653178770000002      8.2303330656960014      7.4345524519999993
   140   1      10.936441840000001      17.813610480000001      10.952199542848003
   141   1      10.316423292848002      13.803345745696001      14.505295677152001
   142   1      11.050104447151996       2.576920395696003      12.809451813848002
   143   1      18.343372840848001      15.395470639999999      10.019579662848002
   144   1      8.2993959428480029     0.33170779679999995      5.4986393128480024
   145   1      17.973136852848004      3.4333277556960082      17.426375870000001
   146   1     0.80794192284800204      7.5529752228480023         20.474643807848
   147   1      20.632951678544011      14.473206470848002      6.7084324028480022
   148   1         19.340698858848      2.8445447210000001       5.934488702848002
   149   1      5.2094754843039972     0.92772940430399575      6.2580536371519999
   150   1      8.6363701571519957      4.0924592556960011      9.2872592828480034
   151   1      16.573766184848001      2.0047114771519969             1.772098293
   152   1      14.656931975848002      14.145036355696003      14.491098020000001
   153   1      11.161400545696006      6.0614176528480037      15.886996649999999
   154   1      3.8100036069999996      4.2045897228480031      2.1352655628480033
   155   1      18.692440909999998      11.818339542848001      18.517067551848001
   156   1      20.424762845696005      10.633675849999999      10.795524260000001
   157   1      8.9045635969999992      9.9226991828480013      20.230372097151996
   158   1       7.794117392848003      19.541194420848001      2.7413864480000001
   159   1      2.7601258228480003         18.210082637848      9.0144243528480015
   160   1             11.74753668      5.0279639828480001      4.3166713980000004
   161   1      20.646940522848002      3.0021636656960018      2.1476060228480027
   162   1      6.5684647639999998      11.951743578848001              11.1410962
   163   1      18.031154565696006      5.6700058928480015      13.165422579848002
   164   1      15.895172957848002      17.482279655696001      17.794652595696004
   165   1     0.68480766284800287      12.218252480848001      4.0936358256960057
   166   1     0.91701951284799998   0.0084410435749999995     0.97080579990000004
   167   1      1.5854406619999997      18.448033265696004      16.147669652847998
   168   1      13.196656457151999      2.0831574228480019      5.6037481529999988
   169   1      13.421974909999999      1.6688298889999997      19.628800055696001
   170   1      7.2980215028480018             15.54065922      6.4329103720000003
   171   1      11.893633444848001     0.12348120715200057      5.2448680371519956
   172   1      21.541479364848001      5.4259114028480013      7.3693869328480028
   173   1      6.2315830528480021      17.491025055696003      7.1340258769999991
   174   1      20.387510800000001      18.732041030000001      14.199903659848001
   175   1      15.041293648848002         20.506613407848      3.2373222228480021
   176   1      19.819132855696001      7.0070709409999994      7.1798520589999999
   177   1      8.4665241828480031      2.7182647879999999       5.746587627151996
   178   1      5.4484082220000003      10.418408565696007      6.1212477743039955
   179   1      10.857397539999999            0.2913739253      3.1644941743039898
   180   1      7.1819172228480017      12.937155158848004      19.556480770848001
   181   1      21.662642624748003      11.836338865696003             12.54540113
   182   1      10.908216792848004      11.204222397151996             1.636176699
   183   1      11.283969450000001       8.441151547151998             16.60744115
   184   1      8.0041989670000007      7.5691033471519962      15.489466869999998
   185   1      8.0787860140000003      6.2848316028480014      8.6408980856960014
   186   1      18.952758481848001      12.153602278848004      4.0525668371519972
   187   1      10.301616762848003      12.082069439999998          8.132931335696
   188   1      14.456119064848002             11.67840831      4.7171098428480018
   189   1      7.1023042128480016      21.275927855696004      15.817980559848001
   190   1      13.118046605696005      20.716967495847999      9.0865784071520004
   191   1      5.3568248028480028      2.2610512728480017      12.506251300000001
   192   1      17.370204335696002             11.09988714      2.4869092728480031
   193   1      15.951748134848003      5.0031265149999999      20.228656285696001
   194   1      3.3317031371519947             11.89492263      8.8175308656959981
   195   1      8.2448773190000004      1.7101680028480015      19.831846209848003
   196   1       9.059631837151997      15.937541027151997      18.299614465696003
   197   1      10.312005692848002      12.477938701848002      16.540836445848001
   198   1      21.269854347148001      2.1445880328480036      16.163516654848003
   199   1         20.792545800848      11.388318497151994      2.6877439628480015
   200   1      5.5189125428480006             10.86485708      12.919066925696006
   201   1      13.160143863847999      14.653675488848002      5.7980384889999996
   202   1      9.4114069199999992      4.0288389528480026      3.9642693059999998
   203   1      10.116417269999999      21.380371578348001      6.7065902199999998
   204   1      18.805651065696004      17.544290972848003      8.7537798710000008
   205   1     0.26867241349999998         20.170001253848             17.23950288
   206   1      14.619185488848002      13.434742681848002      10.348174322848001
   207   1      14.980956375696005       3.651264884303993      2.2764625271519985
   208   1      10.421186792848001      1.4385532571519977             14.85400604
   209   1      2.8953034256960009      8.5987544660000008             11.06397808
   210   1      8.3355939528480008     0.60657276430399432         14.202616180848
   211   1      5.6793647328480015      2.9737838028480015      15.781086165696005
   212   1      7.9003124128480016      8.2923830400000007      21.646025900000001
   213   1      1.7822021128480026      17.871628139999999      5.4814452329999996
   214   1      7.1128789771520005      2.5793194128480015      13.977641985848001
   215   1      14.457959049999998      4.6664902059999998            0.2208685433
   216   1      2.6395609371519964      9.9666923956960041      17.756973626848001
   217   1      12.927900167151998             10.21052869      10.359655800000001
   218   1     0.50897117520000001      2.0797755671519971      8.8236813828480027
   219   1     0.96481270879999992      20.654093030848003             11.92439143
   220   1      19.573894963848002      21.031617081648001             2.122859359
   221   1      18.677331410848002       7.881788542999999      12.988978039999997
   222   1      17.170122460000002      3.9166323156960012      5.7102998971519963
   223   1      7.0912888371519989             12.06959516      1.6955597589999998
   224   1      2.6843180850000001      17.087511979999999             1.348594431
   225   1      5.4863586450000001      16.724888293848004      19.597581160848002
   226   1      16.321551530000001      3.8431301656960044         15.879139656848
   227   1      3.8943693428480022      2.4918869560000001     0.49034896284800022
   228   1      13.243201821848002      3.5149637671519982      13.057977145696006
   229   1      13.301845608544003      21.594048160548002      12.515892389848002
   230   1      4.9014527680000004      11.963327869999999     0.98807815569600299
   231   1      12.670703914848001      14.898140130848001       18.46864879854401
   232   1      6.4221562328480024      6.6167164319999996      3.2973981571519975
   233   1              16.6360423      5.9909423171519949         15.063131566848
   234   1      17.900720725696004      15.398587996848002      1.6081487871520017
   235   1      18.157657069999999     0.84827274284799947      9.7206872771519954
   236   1      20.284712819999999      4.8232795728480022      12.909862935696001
   237   1      1.6608460350000001       2.735481157151999      5.3346036960000003
   238   1      5.8342228789999995     0.99728468715199947      16.974365277848001
   239   1      9.0091686360000001      7.7864362543039949      5.7320227056960062
   240   1      16.189481139848002      4.3152583790000003      7.8495941256960036
   241   1             16.58402813      8.9596450871519959      12.952828527151993
   242   1      4.8526267328480017      10.477339687151996      21.032279335696007
   243   1             2.780864008      16.773589667151999      17.252356455696006
   244   1      19.799065087151998             10.01976812      15.917120441848001
   245   1      3.1696302028480021      7.6711647190000001      5.2806858728480002
   246   1      15.198666060848002      2.3514768171519962      8.6870162289999993
   247   1      16.314186925696003      2.2038716271519943      14.211602690848002
   248   1      6.3142201529999991      2.9351773290000001      6.7007783071519968
   249   1             8.258794323      4.5060539371519983      13.272673899999997
   250   1         13.930807300848             18.22058256      14.447406694848002
   251   1             20.22125651      7.9624848928480025      14.815817389999998
   252   1             1.669607743         11.590332647152      21.349142511848001
   253   1      11.238694022848001      16.345084780000001      17.366654469999997
   254   1      2.0802732728480007      20.285367059999999      2.3401411843039908
   255   1             13.55687058      16.519261570000001      4.3834887371519979
   256   1      7.4222896030000003      19.612575925848002             18.98993639
   257   1      12.929799307151997      16.873927760848002          2.154351345696
   258   1      14.829656917151997      17.016116065696004      10.582946599999998
   259   1      9.9678379929999998      16.305044749848005      20.535968225848002
   260   1      20.951258692348002      14.918350149848001      15.535597709999999
   261   1      21.271341849999999     0.78398082569600747      2.5702867128480031
   262   1      7.5007383450000003      11.411806952848004      5.6065218410000002
   263   1      15.182438790000001             11.14079851      6.9921855270000002
   264   1      12.343335979999999      6.8352521428480015      2.9516946439999998
   265   1      15.691443029999999      17.304404185696001      4.9437431428480014
   266   1      6.2453751428480011      1.4933062156960026      10.462616130000001
   267   1      15.314144990000001      20.757496005696005      16.640592278544002
   268   1      18.230520070000001         18.870646800848      10.823071815696007
   269   1             19.90779238      8.2796130028480004      11.001663837151998
   270   1      16.257876809999999      5.0597818700000001      3.6820486939999997
   271   1      3.6654339771519995      15.697542939999998      13.300457740000001
   272   1              21.3444632      9.2626611828480012      2.0494057428480024
   273   1      21.635118105696002      20.970805923948003      20.967865845548001
   274   1         20.457553242848      2.7197905690000002      11.783937922848001
   275   1      4.3449870471520002      15.926570408848002      15.613171401848001
   276   1      18.509432990000001      3.3144177828480021             1.140797549
   277   1     0.40629969715199699      15.792547455696004      11.298129485696006
   278   1      13.344183805848003      8.1987389256960075      4.5522396199999999
   279   1      8.5372103271519997      21.684026269748003      3.2555156269999999
   280   1             2.289191991     0.76795277284800367      11.689069332848003
   281   1      21.599322885696001      18.890522185696003      6.4050951928480035
   282   1      14.914453899848002      7.5572437028480017      8.8666838410000004
   283   1      21.369255921948003      18.645222083848001      21.258218444303996
   284   1      10.946415877151995      5.8952732028480019         10.883274807152
   285   1      2.6276392710000001      15.799251721848002      6.4343952243039997
   286   1         11.994077737848      15.120342875696005             20.85363044
   287   1      16.645405180000001      10.227616782848001      10.984544184303997
   288   1      13.031662153848002      2.8899057629999998             9.319848768
   289   1              12.4257559      19.828823655696006      13.693327747152001
   290   1      19.889684801848002      19.650279384848002      17.841641484848001
   291   1      4.0234762528480035      9.6808979359999991      4.2826332650000003
   292   1      2.6593357728480047      21.360745705696001      4.2809957028480028
   293   1      6.4933893219999996      3.2767023679999996      9.0115696528480012
   294   1      21.356819670147999      20.332574659999995         10.056907745696
   295   1      14.303738019848002      20.660759980000002            0.9738033479
   296   1      4.4890415079999997      8.4619404428480021     0.41813783284800082
   297   1      6.5630459071519978      7.5737168328480022      11.849926705696003
   298   1      3.4085390090000001      1.4422047889999998         13.663973915848
   299   1      15.634030729999997      1.9642284919999999      5.3769096230000004
   300   1      11.920956089999999     0.81652204449999999      9.6711140828480016
   301   1      20.966448976748001      9.2331926459999991             20.12735885
   302   1             1.628327536      6.2089973489999988      8.4339868899999999
   303   1     0.55349097579999995       9.805942007151998      7.0565354828480036
   304   1             11.57055722             18.92753192      8.9826406490000004
   305   1      4.2493948528480026      7.9917753228480022      14.816513615696007
   306   1      19.729902421847999      12.490667155696004      7.6503960656960039
   307   1      10.845300105696007      14.188456302848003      9.0015844499999993
   308   1      10.806546177151994             11.16172044             10.25554488
   309   1      4.7047245928480041      8.6982994428480005      12.602509299999998
   310   1      3.7572587128479995             12.05875867      6.5218883249999999
   311   1      9.7907791549999992      2.9014012029999998      7.6620261809999999
   312   1      3.7814494249999999      14.081090639999999      5.2774490150000002
   313   1      4.0640794719999995             19.09979165             1.825531341
   314   1      21.752553285696006      10.616413852848002      14.770914643848002
   315   1             1.308696437      11.520813862848001      16.378238456847999
   316   1      5.1840968180000004      20.656751706847999     0.42598593715199695
   317   1      10.763413742848003      2.3914259771519988         17.010527983848
   318   1      4.7969036100000002         15.992351991848      1.2446728371519962
   319   1      11.137293315696009     0.45959931284800409      11.833405242848002
   320   1      14.587453599999998      13.617208649999998       1.160197457151996
   321   1       9.866770982848001     0.79434641284800178      8.6455129856960014
   322   1      17.764716620000002             19.24305695      7.2992089729999989
   323   1      6.0606400071519984      1.2427756371520005      19.300716725696006
   324   1      18.220499495696004             12.87567276      13.217011919999999
   325   1      18.046336713848003      13.170486939999998      9.1451715428480007
   326   1      3.3538610828480042      3.3134735328480023      15.204781897848001
   327   1      10.409343160000001      19.489519781847999      16.366710605848002
   328   1      15.670605917151997      1.1260244128480008      19.926482479848001
   329   1      10.889692800000001      7.3654569480000003      7.1051726371519965
   330   1      13.449252975696004      20.287062087151995      5.0134061689999996
   331   1      16.053294699999999     0.30548159470000003     0.23472139284800175
   332   1      9.8437967128480004      17.840730627151999         14.667095729848
   333   1             13.01511152      10.236651549999999             1.139948542
   334   1      4.2088344519999996      16.632412507152001      8.0042165628480006
   335   1      4.5531935280000004      4.3631389049999996      11.808728670000001
   336   1      12.436985239999998      18.232147575696008      5.4181826580000001
   337   1      4.6662909728479995      4.4221035128480013      5.9766054080000002
   338   1      9.5670730228480014      9.6790615720000002             2.759561948
   339   1      17.665225045696001      17.025570211848002             16.27732735
   340   1      20.363510847151996             13.82837988      13.421127159999998
   341   1      10.014464235696005      7.4130814899999997      9.2700875689999993
   342   1      2.1350005728480013      7.0368379240000003      14.845142129848002
   343   1             10.12804755      17.906678273848001      5.2696404928480014
   344   1      9.9635817571519976      11.718407002848002      21.379742040448001
   345   1      3.9302943890000002      18.491746755696003      10.974292642847999
   346   1      4.4377685328480014      0.9776453071519966      3.9694231171519974
   347   1      3.3543848329999997             11.61750007      13.288197954848002
   348   1      10.149215382848002      8.5098305071519995      18.744307161848003
   349   1      20.003204948848001         12.085187024848     0.60045830609999995
   350   1      8.1377773928480028      7.5881966428480006      17.829788659999998
   351   1      4.9941326228480047      4.9583391890000001      9.5897838489999998
   352   1      5.3165843539999997      14.360896585848002      19.835374644848002
   353   1      9.3032338228480018             10.03233236      5.0535282371519941
   354   1      15.906742294848003      19.021176989848001      11.285694575696004
   355   1          4.774959277152      3.1100285171519975      20.174553405696003
   356   1      12.311560780000001      9.1072009343039912       6.496543907151997
   357   1      10.480902629999999      4.6615538560000003      17.635080709848001
   358   1             4.707577594      13.697099297151997      16.331052235696006
   359   1      12.297669479848002       5.549249792848002      6.5762914209999987