300
Lattice="12.2224938 0.0 0.0 -6.111246899999998 10.5849901283978 0.0 0.0 0.0 19.8003651" Properties=species:S:1:pos:R:3:spacegroup_kinds:I:1:forces:R:3:energies:R:1 spacegroup="P 63/m m c" unit_cell=conventional occupancy="_JSON {\"0\": {\"C\": 1}, \"1\": {\"C\": 1}}" energy=-985.7812607954985 pbc="T T T"
C        0.00000000       0.00000000       1.65003042        0       0.00000087       0.00000114       0.00000646      -3.28738273
C        0.00000000       0.00000000       4.95009128        0       0.00000066      -0.00000026       0.00057844      -3.28738259
C       -0.00000001       1.41133202       1.65003042        1       0.00000209      -0.00000121       0.00000204      -3.28449252
C        1.22224939       0.70566600       4.95009128        1      -0.00000055       0.00000032      -0.00155080      -3.28449243
C        0.00000000       0.00000000       8.25015212        0      -0.00000197      -0.00000050       0.00000646      -3.28738246
C        0.00000000       0.00000000      11.55021298        0       0.00000044      -0.00000038       0.00000035      -3.28738260
C       -0.00000001       1.41133202       8.25015212        1      -0.00000100       0.00000058       0.00000204      -3.28449244
C        1.22224939       0.70566600      11.55021298        1      -0.00000055       0.00000032       0.00000090      -3.28449248
C        0.00000000       0.00000000      14.85027383        0      -0.00000055       0.00000032      -0.00000000      -3.28738260
C        0.00000000       0.00000000      18.15033467        0       0.00000066      -0.00000025       0.00000035      -3.28738260
C       -0.00000001       1.41133202      14.85027383        1       0.00000055      -0.00000032       0.00000000      -3.28449248
C        1.22224939       0.70566600      18.15033467        1      -0.00000055       0.00000032       0.00000090      -3.28449248
C       -1.22224938       2.11699803       1.65003042        0       0.00000114      -0.00000066       0.00000044      -3.28738260
C       -1.22224938       2.11699803       4.95009128        0       0.00000055      -0.00000032       0.00003419      -3.28738260
C       -1.22224939       3.52833005       1.65003042        1      -0.00000054       0.00000024      -0.00000126      -3.28449248
C        0.00000001       2.82266403       4.95009128        1      -0.00000055       0.00000032      -0.00001745      -3.28449248
C       -1.22224938       2.11699803       8.25015212        0      -0.00000224       0.00000130       0.00000044      -3.28738260
C       -1.22224938       2.11699803      11.55021298        0       0.00000056      -0.00000032      -0.00000003      -3.28738260
C       -1.22224939       3.52833005       8.25015212        1       0.00000164      -0.00000087      -0.00000126      -3.28449248
C        0.00000001       2.82266403      11.55021298        1      -0.00000056       0.00000035       0.00000006      -3.28449248
C       -1.22224938       2.11699803      14.85027383        0      -0.00000055       0.00000032       0.00000000      -3.28738260
C       -1.22224938       2.11699803      18.15033467        0       0.00000054      -0.00000031      -0.00000003      -3.28738260
C       -1.22224939       3.52833005      14.85027383        1       0.00000055      -0.00000032      -0.00000000      -3.28449248
C        0.00000001       2.82266403      18.15033467        1      -0.00000054       0.00000029       0.00000006      -3.28449248
C       -2.44449876       4.23399605       1.65003042        0      -0.00000053       0.00000030       0.00000000      -3.28738260
C       -2.44449876       4.23399605       4.95009128        0       0.00000055      -0.00000032      -0.00000207      -3.28738260
C       -2.44449877       5.64532808       1.65003042        1       0.00000055      -0.00000032      -0.00000000      -3.28449248
C       -1.22224937       4.93966205       4.95009128        1      -0.00000055       0.00000032      -0.00000174      -3.28449248
C       -2.44449876       4.23399605       8.25015212        0      -0.00000057       0.00000034      -0.00000000      -3.28738260
C       -2.44449876       4.23399605      11.55021298        0       0.00000055      -0.00000032       0.00000000      -3.28738260
C       -2.44449877       5.64532808       8.25015212        1       0.00000055      -0.00000032       0.00000000      -3.28449248
C       -1.22224937       4.93966205      11.55021298        1      -0.00000055       0.00000032      -0.00000000      -3.28449248
C       -2.44449876       4.23399605      14.85027383        0      -0.00000055       0.00000032      -0.00000000      -3.28738260
C       -2.44449876       4.23399605      18.15033467        0       0.00000055      -0.00000032       0.00000000      -3.28738260
C       -2.44449877       5.64532808      14.85027383        1       0.00000055      -0.00000032      -0.00000000      -3.28449248
C       -1.22224937       4.93966205      18.15033467        1      -0.00000055       0.00000032       0.00000000      -3.28449248
C       -3.66674814       6.35099408       1.65003042        0      -0.00000056       0.00000034       0.00000000      -3.28738260
C       -3.66674814       6.35099408       4.95009128        0       0.00000055      -0.00000032      -0.00000207      -3.28738260
C       -3.66674815       7.76232610       1.65003042        1       0.00000049      -0.00000154      -0.00000126      -3.28449248
C       -2.44449875       7.05666008       4.95009128        1      -0.00000055       0.00000032      -0.00000174      -3.28449248
C       -3.66674814       6.35099408       8.25015212        0      -0.00000054       0.00000029      -0.00000000      -3.28738260
C       -3.66674814       6.35099408      11.55021298        0       0.00000055      -0.00000032      -0.00000000      -3.28738260
C       -3.66674815       7.76232610       8.25015212        1       0.00000061       0.00000091      -0.00000126      -3.28449248
C       -2.44449875       7.05666008      11.55021298        1      -0.00000055       0.00000032      -0.00000000      -3.28449248
C       -3.66674814       6.35099408      14.85027383        0      -0.00000055       0.00000032       0.00000000      -3.28738260
C       -3.66674814       6.35099408      18.15033467        0       0.00000055      -0.00000032       0.00000000      -3.28738260
C       -3.66674815       7.76232610      14.85027383        1       0.00000055      -0.00000032       0.00000000      -3.28449248
C       -2.44449875       7.05666008      18.15033467        1      -0.00000055       0.00000032       0.00000000      -3.28449248
C       -4.88899752       8.46799210       1.65003042        0      -0.00000055       0.00000227       0.00000044      -3.28738260
C       -4.88899752       8.46799210       4.95009128        0       0.00000055      -0.00000032       0.00003419      -3.28738260
C       -4.88899753       9.87932413       1.65003042        1       0.00000055       0.00000147       0.00000204      -3.28449252
C       -3.66674813       9.17365810       4.95009128        1      -0.00000055       0.00000031      -0.00001745      -3.28449248
C       -4.88899752       8.46799210       8.25015212        0      -0.00000055      -0.00000164       0.00000044      -3.28738260
C       -4.88899752       8.46799210      11.55021298        0       0.00000055      -0.00000031      -0.00000003      -3.28738260
C       -4.88899753       9.87932413       8.25015212        1       0.00000055      -0.00000210       0.00000204      -3.28449244
C       -3.66674813       9.17365810      11.55021298        1      -0.00000053       0.00000029       0.00000006      -3.28449248
C       -4.88899752       8.46799210      14.85027383        0      -0.00000055       0.00000032       0.00000000      -3.28738260
C       -4.88899752       8.46799210      18.15033467        0       0.00000055      -0.00000033      -0.00000003      -3.28738260
C       -4.88899753       9.87932413      14.85027383        1       0.00000055      -0.00000032      -0.00000000      -3.28449248
C       -3.66674813       9.17365810      18.15033467        1      -0.00000057       0.00000034       0.00000006      -3.28449248
C        2.44449876       0.00000000       1.65003042        0      -0.00000197       0.00000114       0.00000646      -3.28738273
C        2.44449876       0.00000000       4.95009128        0       0.00000044      -0.00000026       0.00057844      -3.28738259
C        2.44449875       1.41133202       1.65003042        1      -0.00000100      -0.00000121       0.00000204      -3.28449252
C        3.66674815       0.70566600       4.95009128        1      -0.00000055       0.00000032      -0.00001745      -3.28449248
C        2.44449876       0.00000000       8.25015212        0       0.00000086      -0.00000050       0.00000646      -3.28738246
C        2.44449876       0.00000000      11.55021298        0       0.00000066      -0.00000038       0.00000035      -3.28738260
C        2.44449875       1.41133202       8.25015212        1       0.00000209       0.00000058       0.00000204      -3.28449244
C        3.66674815       0.70566600      11.55021298        1      -0.00000052       0.00000031       0.00000006      -3.28449248
C        2.44449876       0.00000000      14.85027383        0      -0.00000055       0.00000032      -0.00000000      -3.28738260
C        2.44449876       0.00000000      18.15033467        0       0.00000044      -0.00000025       0.00000035      -3.28738260
C        2.44449875       1.41133202      14.85027383        1       0.00000055      -0.00000032      -0.00000000      -3.28449248
C        3.66674815       0.70566600      18.15033467        1      -0.00000058       0.00000032       0.00000006      -3.28449248
C        1.22224938       2.11699803       1.65003042        0      -0.00000055      -0.00000132       0.00000646      -3.28738273
C        1.22224938       2.11699803       4.95009128        0       0.00000055      -0.00000044       0.00057844      -3.28738259
C        1.22224937       3.52833005       1.65003042        1       0.00000055      -0.00000254       0.00000233      -3.28449248
C        2.44449877       2.82266403       4.95009128        1      -0.00000054       0.00000032      -0.00001745      -3.28449248
C        1.22224938       2.11699803       8.25015212        0      -0.00000055       0.00000195       0.00000646      -3.28738246
C        1.22224938       2.11699803      11.55021298        0       0.00000055      -0.00000019       0.00000035      -3.28738260
C        1.22224937       3.52833005       8.25015212        1       0.00000055       0.00000191       0.00000233      -3.28449248
C        2.44449877       2.82266403      11.55021298        1      -0.00000054       0.00000035       0.00000006      -3.28449248
C        1.22224938       2.11699803      14.85027383        0      -0.00000055       0.00000032       0.00000000      -3.28738260
C        1.22224938       2.11699803      18.15033467        0       0.00000055      -0.00000045       0.00000035      -3.28738260
C        1.22224937       3.52833005      14.85027383        1       0.00000055      -0.00000032       0.00000000      -3.28449248
C        2.44449877       2.82266403      18.15033467        1      -0.00000056       0.00000029       0.00000006      -3.28449248
C        0.00000000       4.23399605       1.65003042        0      -0.00000042       0.00000160      -0.00000104      -3.28738260
C        0.00000000       4.23399605       4.95009128        0       0.00000055      -0.00000031      -0.00002810      -3.28738260
C       -0.00000001       5.64532808       1.65003042        1       0.00000056      -0.00000034       0.00000000      -3.28449248
C        1.22224939       4.93966205       4.95009128        1      -0.00000055       0.00000032      -0.00000589      -3.28449248
C        0.00000000       4.23399605       8.25015212        0      -0.00000068      -0.00000096      -0.00000104      -3.28738260
C        0.00000000       4.23399605      11.55021298        0       0.00000055      -0.00000032      -0.00000000      -3.28738260
C       -0.00000001       5.64532808       8.25015212        1       0.00000054      -0.00000029      -0.00000000      -3.28449248
C        1.22224939       4.93966205      11.55021298        1      -0.00000055       0.00000032      -0.00000000      -3.28449248
C        0.00000000       4.23399605      14.85027383        0      -0.00000055       0.00000032      -0.00000000      -3.28738260
C        0.00000000       4.23399605      18.15033467        0       0.00000055      -0.00000032      -0.00000000      -3.28738260
C       -0.00000001       5.64532808      14.85027383        1       0.00000055      -0.00000032      -0.00000000      -3.28449248
C        1.22224939       4.93966205      18.15033467        1      -0.00000055       0.00000032       0.00000000      -3.28449248
C       -1.22224938       6.35099408       1.65003042        0      -0.00000055       0.00000032      -0.00000000      -3.28738260
C       -1.22224938       6.35099408       4.95009128        0       0.00000055      -0.00000032      -0.00000000      -3.28738260
C       -1.22224939       7.76232610       1.65003042        1       0.00000053      -0.00000030       0.00000000      -3.28449248
C        0.00000001       7.05666008       4.95009128        1      -0.00000055       0.00000032      -0.00000000      -3.28449248
C       -1.22224938       6.35099408       8.25015212        0      -0.00000055       0.00000032       0.00000000      -3.28738260
C       -1.22224938       6.35099408      11.55021298        0       0.00000055      -0.00000032      -0.00000000      -3.28738260
C       -1.22224939       7.76232610       8.25015212        1       0.00000057      -0.00000034      -0.00000000      -3.28449248
C        0.00000001       7.05666008      11.55021298        1      -0.00000055       0.00000032      -0.00000000      -3.28449248
C       -1.22224938       6.35099408      14.85027383        0      -0.00000055       0.00000032      -0.00000000      -3.28738260
C       -1.22224938       6.35099408      18.15033467        0       0.00000055      -0.00000032       0.00000000      -3.28738260
C       -1.22224939       7.76232610      14.85027383        1       0.00000055      -0.00000032      -0.00000000      -3.28449248
C        0.00000001       7.05666008      18.15033467        1      -0.00000055       0.00000032       0.00000000      -3.28449248
C       -2.44449876       8.46799210       1.65003042        0       0.00000062      -0.00000021      -0.00000104      -3.28738260
C       -2.44449876       8.46799210       4.95009128        0       0.00000055      -0.00000032      -0.00002810      -3.28738260
C       -2.44449877       9.87932413       1.65003042        1      -0.00000138       0.00000080       0.00000233      -3.28449248
C       -1.22224937       9.17365810       4.95009128        1      -0.00000055       0.00000032      -0.00000589      -3.28449248
C       -2.44449876       8.46799210       8.25015212        0      -0.00000172       0.00000084      -0.00000104      -3.28738260
C       -2.44449876       8.46799210      11.55021298        0       0.00000055      -0.00000032      -0.00000000      -3.28738260
C       -2.44449877       9.87932413       8.25015212        1       0.00000247      -0.00000143       0.00000233      -3.28449248
C       -1.22224937       9.17365810      11.55021298        1      -0.00000055       0.00000032      -0.00000000      -3.28449248
C       -2.44449876       8.46799210      14.85027383        0      -0.00000055       0.00000032       0.00000000      -3.28738260
C       -2.44449876       8.46799210      18.15033467        0       0.00000055      -0.00000032      -0.00000000      -3.28738260
C       -2.44449877       9.87932413      14.85027383        1       0.00000055      -0.00000032      -0.00000000      -3.28449248
C       -1.22224937       9.17365810      18.15033467        1      -0.00000055       0.00000032       0.00000000      -3.28449248
C        4.88899752       0.00000000       1.65003042        0       0.00000049      -0.00000044      -0.00000104      -3.28738260
C        4.88899752       0.00000000       4.95009128        0       0.00000056      -0.00000032      -0.00002810      -3.28738260
C        4.88899751       1.41133202       1.65003042        1       0.00000158       0.00000035      -0.00000126      -3.28449248
C        6.11124691       0.70566600       4.95009128        1      -0.00000055       0.00000032      -0.00000174      -3.28449248
C        4.88899752       0.00000000       8.25015212        0      -0.00000159       0.00000107      -0.00000104      -3.28738260
C        4.88899752       0.00000000      11.55021298        0       0.00000055      -0.00000032      -0.00000000      -3.28738260
C        4.88899751       1.41133202       8.25015212        1      -0.00000048      -0.00000098      -0.00000126      -3.28449248
C        6.11124691       0.70566600      11.55021298        1      -0.00000055       0.00000032      -0.00000000      -3.28449248
C        4.88899752       0.00000000      14.85027383        0      -0.00000055       0.00000032      -0.00000000      -3.28738260
C        4.88899752       0.00000000      18.15033467        0       0.00000055      -0.00000032      -0.00000000      -3.28738260
C        4.88899751       1.41133202      14.85027383        1       0.00000055      -0.00000032      -0.00000000      -3.28449248
C        6.11124691       0.70566600      18.15033467        1      -0.00000055       0.00000032       0.00000000      -3.28449248
C        3.66674814       2.11699803       1.65003042        0      -0.00000225      -0.00000066       0.00000044      -3.28738260
C        3.66674814       2.11699803       4.95009128        0       0.00000055      -0.00000032       0.00003419      -3.28738260
C        3.66674813       3.52833005       1.65003042        1       0.00000164       0.00000024      -0.00000126      -3.28449248
C        4.88899753       2.82266403       4.95009128        1      -0.00000055       0.00000032      -0.00000589      -3.28449248
C        3.66674814       2.11699803       8.25015212        0       0.00000114       0.00000130       0.00000044      -3.28738260
C        3.66674814       2.11699803      11.55021298        0       0.00000054      -0.00000032      -0.00000003      -3.28738260
C        3.66674813       3.52833005       8.25015212        1      -0.00000054      -0.00000087      -0.00000126      -3.28449248
C        4.88899753       2.82266403      11.55021298        1      -0.00000055       0.00000032      -0.00000000      -3.28449248
C        3.66674814       2.11699803      14.85027383        0      -0.00000055       0.00000032       0.00000000      -3.28738260
C        3.66674814       2.11699803      18.15033467        0       0.00000056      -0.00000031      -0.00000003      -3.28738260
C        3.66674813       3.52833005      14.85027383        1       0.00000055      -0.00000032      -0.00000000      -3.28449248
C        4.88899753       2.82266403      18.15033467        1      -0.00000055       0.00000032       0.00000000      -3.28449248
C        2.44449876       4.23399605       1.65003042        0      -0.00000068       0.00000160      -0.00000104      -3.28738260
C        2.44449876       4.23399605       4.95009128        0       0.00000055      -0.00000031      -0.00002810      -3.28738260
C        2.44449875       5.64532808       1.65003042        1       0.00000054      -0.00000034       0.00000000      -3.28449248
C        3.66674815       4.93966205       4.95009128        1      -0.00000055       0.00000032      -0.00000174      -3.28449248
C        2.44449876       4.23399605       8.25015212        0      -0.00000042      -0.00000096      -0.00000104      -3.28738260
C        2.44449876       4.23399605      11.55021298        0       0.00000055      -0.00000032      -0.00000000      -3.28738260
C        2.44449875       5.64532808       8.25015212        1       0.00000056      -0.00000029      -0.00000000      -3.28449248
C        3.66674815       4.93966205      11.55021298        1      -0.00000055       0.00000032      -0.00000000      -3.28449248
C        2.44449876       4.23399605      14.85027383        0      -0.00000055       0.00000032       0.00000000      -3.28738260
C        2.44449876       4.23399605      18.15033467        0       0.00000055      -0.00000032      -0.00000000      -3.28738260
C        2.44449875       5.64532808      14.85027383        1       0.00000055      -0.00000032      -0.00000000      -3.28449248
C        3.66674815       4.93966205      18.15033467        1      -0.00000055       0.00000032       0.00000000      -3.28449248
C        1.22224938       6.35099408       1.65003042        0      -0.00000055       0.00000032      -0.00000000      -3.28738260
C        1.22224938       6.35099408       4.95009128        0       0.00000055      -0.00000032      -0.00000000      -3.28738260
C        1.22224937       7.76232610       1.65003042        1       0.00000055      -0.00000032      -0.00000000      -3.28449248
C        2.44449877       7.05666008       4.95009128        1      -0.00000055       0.00000032      -0.00000000      -3.28449248
C        1.22224938       6.35099408       8.25015212        0      -0.00000055       0.00000032       0.00000000      -3.28738260
C        1.22224938       6.35099408      11.55021298        0       0.00000055      -0.00000032      -0.00000000      -3.28738260
C        1.22224937       7.76232610       8.25015212        1       0.00000055      -0.00000032       0.00000000      -3.28449248
C        2.44449877       7.05666008      11.55021298        1      -0.00000055       0.00000032      -0.00000000      -3.28449248
C        1.22224938       6.35099408      14.85027383        0      -0.00000055       0.00000032      -0.00000000      -3.28738260
C        1.22224938       6.35099408      18.15033467        0       0.00000055      -0.00000032       0.00000000      -3.28738260
C        1.22224937       7.76232610      14.85027383        1       0.00000055      -0.00000032      -0.00000000      -3.28449248
C        2.44449877       7.05666008      18.15033467        1      -0.00000055       0.00000032       0.00000000      -3.28449248
C        0.00000000       8.46799210       1.65003042        0      -0.00000055       0.00000032      -0.00000000      -3.28738260
C        0.00000000       8.46799210       4.95009128        0       0.00000055      -0.00000032       0.00000000      -3.28738260
C       -0.00000001       9.87932413       1.65003042        1       0.00000052      -0.00000031       0.00000000      -3.28449248
C        1.22224939       9.17365810       4.95009128        1      -0.00000055       0.00000032      -0.00000000      -3.28449248
C        0.00000000       8.46799210       8.25015212        0      -0.00000055       0.00000032       0.00000000      -3.28738260
C        0.00000000       8.46799210      11.55021298        0       0.00000055      -0.00000032      -0.00000000      -3.28738260
C       -0.00000001       9.87932413       8.25015212        1       0.00000058      -0.00000032      -0.00000000      -3.28449248
C        1.22224939       9.17365810      11.55021298        1      -0.00000055       0.00000032      -0.00000000      -3.28449248
C        0.00000000       8.46799210      14.85027383        0      -0.00000055       0.00000032      -0.00000000      -3.28738260
C        0.00000000       8.46799210      18.15033467        0       0.00000055      -0.00000032       0.00000000      -3.28738260
C       -0.00000001       9.87932413      14.85027383        1       0.00000055      -0.00000032      -0.00000000      -3.28449248
C        1.22224939       9.17365810      18.15033467        1      -0.00000055       0.00000032       0.00000000      -3.28449248
C        7.33349628       0.00000000       1.65003042        0      -0.00000055       0.00000032      -0.00000000      -3.28738260
C        7.33349628       0.00000000       4.95009128        0       0.00000055      -0.00000032       0.00000000      -3.28738260
C        7.33349627       1.41133202       1.65003042        1       0.00000055      -0.00000032      -0.00000000      -3.28449248
C        8.55574567       0.70566600       4.95009128        1      -0.00000055       0.00000032      -0.00000174      -3.28449248
C        7.33349628       0.00000000       8.25015212        0      -0.00000055       0.00000032       0.00000000      -3.28738260
C        7.33349628       0.00000000      11.55021298        0       0.00000055      -0.00000032      -0.00000000      -3.28738260
C        7.33349627       1.41133202       8.25015212        1       0.00000055      -0.00000032       0.00000000      -3.28449248
C        8.55574567       0.70566600      11.55021298        1      -0.00000055       0.00000032      -0.00000000      -3.28449248
C        7.33349628       0.00000000      14.85027383        0      -0.00000055       0.00000032      -0.00000000      -3.28738260
C        7.33349628       0.00000000      18.15033467        0       0.00000055      -0.00000032      -0.00000000      -3.28738260
C        7.33349627       1.41133202      14.85027383        1       0.00000055      -0.00000032      -0.00000000      -3.28449248
C        8.55574567       0.70566600      18.15033467        1      -0.00000055       0.00000032       0.00000000      -3.28449248
C        6.11124690       2.11699803       1.65003042        0      -0.00000058       0.00000031       0.00000000      -3.28738260
C        6.11124690       2.11699803       4.95009128        0       0.00000055      -0.00000032      -0.00000207      -3.28738260
C        6.11124689       3.52833005       1.65003042        1       0.00000055      -0.00000032      -0.00000000      -3.28449248
C        7.33349629       2.82266403       4.95009128        1      -0.00000055       0.00000032      -0.00000000      -3.28449248
C        6.11124690       2.11699803       8.25015212        0      -0.00000052       0.00000032      -0.00000000      -3.28738260
C        6.11124690       2.11699803      11.55021298        0       0.00000055      -0.00000032      -0.00000000      -3.28738260
C        6.11124689       3.52833005       8.25015212        1       0.00000055      -0.00000032       0.00000000      -3.28449248
C        7.33349629       2.82266403      11.55021298        1      -0.00000055       0.00000032      -0.00000000      -3.28449248
C        6.11124690       2.11699803      14.85027383        0      -0.00000055       0.00000032       0.00000000      -3.28738260
C        6.11124690       2.11699803      18.15033467        0       0.00000055      -0.00000032       0.00000000      -3.28738260
C        6.11124689       3.52833005      14.85027383        1       0.00000055      -0.00000032       0.00000000      -3.28449248
C        7.33349629       2.82266403      18.15033467        1      -0.00000055       0.00000032       0.00000000      -3.28449248
C        4.88899752       4.23399605       1.65003042        0      -0.00000057       0.00000030       0.00000000      -3.28738260
C        4.88899752       4.23399605       4.95009128        0       0.00000055      -0.00000032      -0.00000207      -3.28738260
C        4.88899751       5.64532808       1.65003042        1       0.00000055      -0.00000032      -0.00000000      -3.28449248
C        6.11124691       4.93966205       4.95009128        1      -0.00000055       0.00000032      -0.00000000      -3.28449248
C        4.88899752       4.23399605       8.25015212        0      -0.00000053       0.00000034      -0.00000000      -3.28738260
C        4.88899752       4.23399605      11.55021298        0       0.00000055      -0.00000032      -0.00000000      -3.28738260
C        4.88899751       5.64532808       8.25015212        1       0.00000055      -0.00000032       0.00000000      -3.28449248
C        6.11124691       4.93966205      11.55021298        1      -0.00000055       0.00000032      -0.00000000      -3.28449248
C        4.88899752       4.23399605      14.85027383        0      -0.00000055       0.00000032      -0.00000000      -3.28738260
C        4.88899752       4.23399605      18.15033467        0       0.00000055      -0.00000032       0.00000000      -3.28738260
C        4.88899751       5.64532808      14.85027383        1       0.00000055      -0.00000032      -0.00000000      -3.28449248
C        6.11124691       4.93966205      18.15033467        1      -0.00000055       0.00000032       0.00000000      -3.28449248
C        3.66674814       6.35099408       1.65003042        0      -0.00000055       0.00000032      -0.00000000      -3.28738260
C        3.66674814       6.35099408       4.95009128        0       0.00000055      -0.00000032       0.00000000      -3.28738260
C        3.66674813       7.76232610       1.65003042        1       0.00000057      -0.00000030       0.00000000      -3.28449248
C        4.88899753       7.05666008       4.95009128        1      -0.00000055       0.00000032      -0.00000174      -3.28449248
C        3.66674814       6.35099408       8.25015212        0      -0.00000055       0.00000032       0.00000000      -3.28738260
C        3.66674814       6.35099408      11.55021298        0       0.00000055      -0.00000032      -0.00000000      -3.28738260
C        3.66674813       7.76232610       8.25015212        1       0.00000053      -0.00000034      -0.00000000      -3.28449248
C        4.88899753       7.05666008      11.55021298        1      -0.00000055       0.00000032      -0.00000000      -3.28449248
C        3.66674814       6.35099408      14.85027383        0      -0.00000055       0.00000032      -0.00000000      -3.28738260
C        3.66674814       6.35099408      18.15033467        0       0.00000055      -0.00000032       0.00000000      -3.28738260