300
Lattice="12.2224938 0.0 0.0 -6.111246899999998 10.5849901283978 0.0 0.0 0.0 19.8003651" Properties=species:S:1:pos:R:3:forces:R:3 spacegroup="P 63/m m c" unit_cell=conventional energy=-985.7812607179652 pbc="T T T"
C        0.00000000       0.00000000       1.65003042      -0.00000197      -0.00000213      -0.00001293
C        0.00000000       0.00000000       4.95009128       0.00000066      -0.00000038      -0.00057879
C       -0.00000001       1.41133202       1.65003042      -0.00000100      -0.00000165      -0.00000437
C        1.22224939       0.70566600       4.95009128      -0.00000056       0.00000029       0.00155073
C        0.00000000       0.00000000       8.25015212       0.00000087       0.00000114      -0.00000646
C        0.00000000       0.00000000      11.55021298       0.00000066      -0.00000012      -0.00000070
C       -0.00000001       1.41133202       8.25015212       0.00000209      -0.00000121      -0.00000204
C        1.22224939       0.70566600      11.55021298      -0.00000054       0.00000035      -0.00000096
C        0.00000000       0.00000000      14.85027383      -0.00000055       0.00000195      -0.00000646
C        0.00000000       0.00000000      18.15033467       0.00000044      -0.00000051      -0.00057879
C       -0.00000001       1.41133202      14.85027383       0.00000055       0.00000191      -0.00000233
C        1.22224939       0.70566600      18.15033467      -0.00000054       0.00000032       0.00001656
C       -1.22224938       2.11699803       1.65003042      -0.00000211       0.00000257       0.00000060
C       -1.22224938       2.11699803       4.95009128       0.00000055      -0.00000031      -0.00003418
C       -1.22224939       3.52833005       1.65003042       0.00000165      -0.00000090       0.00000126
C        0.00000001       2.82266403       4.95009128      -0.00000055       0.00000032       0.00001745
C       -1.22224938       2.11699803       8.25015212       0.00000114      -0.00000066      -0.00000044
C       -1.22224938       2.11699803      11.55021298       0.00000054      -0.00000031       0.00000004
C       -1.22224939       3.52833005       8.25015212      -0.00000054       0.00000024       0.00000126
C        0.00000001       2.82266403      11.55021298      -0.00000054       0.00000029      -0.00000006
C       -1.22224938       2.11699803      14.85027383      -0.00000068      -0.00000096       0.00000104
C       -1.22224938       2.11699803      18.15033467       0.00000056      -0.00000032       0.00002814
C       -1.22224939       3.52833005      14.85027383       0.00000054      -0.00000029       0.00000000
C        0.00000001       2.82266403      18.15033467      -0.00000056       0.00000035       0.00000583
C       -2.44449876       4.23399605       1.65003042      -0.00000057       0.00000034       0.00000000
C       -2.44449876       4.23399605       4.95009128       0.00000055      -0.00000032       0.00000207
C       -2.44449877       5.64532808       1.65003042       0.00000053      -0.00000030      -0.00000000
C       -1.22224937       4.93966205       4.95009128      -0.00000055       0.00000032       0.00000174
C       -2.44449876       4.23399605       8.25015212      -0.00000053       0.00000030      -0.00000000
C       -2.44449876       4.23399605      11.55021298       0.00000055      -0.00000032      -0.00000000
C       -2.44449877       5.64532808       8.25015212       0.00000055      -0.00000032       0.00000000
C       -1.22224937       4.93966205      11.55021298      -0.00000055       0.00000032      -0.00000000
C       -2.44449876       4.23399605      14.85027383      -0.00000055       0.00000032      -0.00000000
C       -2.44449876       4.23399605      18.15033467       0.00000055      -0.00000032       0.00000000
C       -2.44449877       5.64532808      14.85027383       0.00000057      -0.00000034       0.00000000
C       -1.22224937       4.93966205      18.15033467      -0.00000055       0.00000032       0.00000000
C       -3.66674814       6.35099408       1.65003042       0.00000063      -0.00000023       0.00000104
C       -3.66674814       6.35099408       4.95009128       0.00000055      -0.00000032       0.00000207
C       -3.66674815       7.76232610       1.65003042      -0.00000131       0.00000202      -0.00000107
C       -2.44449875       7.05666008       4.95009128      -0.00000055       0.00000032       0.00000174
C       -3.66674814       6.35099408       8.25015212      -0.00000056       0.00000034      -0.00000000
C       -3.66674814       6.35099408      11.55021298       0.00000055      -0.00000032       0.00000000
C       -3.66674815       7.76232610       8.25015212       0.00000049      -0.00000154       0.00000126
C       -2.44449875       7.05666008      11.55021298      -0.00000055       0.00000032      -0.00000000
C       -3.66674814       6.35099408      14.85027383      -0.00000172       0.00000084       0.00000104
C       -3.66674814       6.35099408      18.15033467       0.00000055      -0.00000032       0.00002810
C       -3.66674815       7.76232610      14.85027383       0.00000247      -0.00000143      -0.00000233
C       -2.44449875       7.05666008      18.15033467      -0.00000055       0.00000032       0.00000589
C       -4.88899752       8.46799210       1.65003042      -0.00000197      -0.00000082      -0.00000690
C       -4.88899752       8.46799210       4.95009128       0.00000044      -0.00000026      -0.00003453
C       -4.88899753       9.87932413       1.65003042      -0.00000100      -0.00000299      -0.00000408
C       -3.66674813       9.17365810       4.95009128      -0.00000058       0.00000032       0.00001739
C       -4.88899752       8.46799210       8.25015212      -0.00000055       0.00000227      -0.00000044
C       -4.88899752       8.46799210      11.55021298       0.00000066      -0.00000039      -0.00000032
C       -4.88899753       9.87932413       8.25015212       0.00000055       0.00000147      -0.00000204
C       -3.66674813       9.17365810      11.55021298      -0.00000054       0.00000034      -0.00000013
C       -4.88899752       8.46799210      14.85027383       0.00000086      -0.00000050      -0.00000646
C       -4.88899752       8.46799210      18.15033467       0.00000044      -0.00000024      -0.00057841
C       -4.88899753       9.87932413      14.85027383       0.00000209       0.00000058      -0.00000204
C       -3.66674813       9.17365810      18.15033467      -0.00000053       0.00000030       0.00001739
C        2.44449876       0.00000000       1.65003042      -0.00000083      -0.00000148      -0.00000690
C        2.44449876       0.00000000       4.95009128       0.00000045      -0.00000025      -0.00057841
C        2.44449875       1.41133202       1.65003042       0.00000319       0.00000113      -0.00000078
C        3.66674815       0.70566600       4.95009128      -0.00000055       0.00000032       0.00001745
C        2.44449876       0.00000000       8.25015212      -0.00000197       0.00000114      -0.00000646
C        2.44449876       0.00000000      11.55021298       0.00000043      -0.00000026      -0.00000031
C        2.44449875       1.41133202       8.25015212      -0.00000100      -0.00000121      -0.00000204
C        3.66674815       0.70566600      11.55021298      -0.00000058       0.00000032      -0.00000006
C        2.44449876       0.00000000      14.85027383       0.00000114       0.00000130      -0.00000044
C        2.44449876       0.00000000      18.15033467       0.00000067      -0.00000038      -0.00003454
C        2.44449875       1.41133202      14.85027383      -0.00000054      -0.00000087       0.00000126
C        3.66674815       0.70566600      18.15033467      -0.00000052       0.00000031       0.00000583
C        1.22224938       2.11699803       1.65003042      -0.00000068       0.00000323      -0.00000543
C        1.22224938       2.11699803       4.95009128       0.00000055      -0.00000044      -0.00057844
C        1.22224937       3.52833005       1.65003042       0.00000054       0.00000188      -0.00000233
C        2.44449877       2.82266403       4.95009128      -0.00000054       0.00000032       0.00001745
C        1.22224938       2.11699803       8.25015212      -0.00000055      -0.00000132      -0.00000646
C        1.22224938       2.11699803      11.55021298       0.00000055      -0.00000045      -0.00000034
C        1.22224937       3.52833005       8.25015212       0.00000055      -0.00000254      -0.00000233
C        2.44449877       2.82266403      11.55021298      -0.00000056       0.00000029      -0.00000006
C        1.22224938       2.11699803      14.85027383      -0.00000042      -0.00000096       0.00000104
C        1.22224938       2.11699803      18.15033467       0.00000055      -0.00000018       0.00002776
C        1.22224937       3.52833005      14.85027383       0.00000056      -0.00000029       0.00000000
C        2.44449877       2.82266403      18.15033467      -0.00000054       0.00000035       0.00000168
C        0.00000000       4.23399605       1.65003042      -0.00000068      -0.00000096       0.00000104
C        0.00000000       4.23399605       4.95009128       0.00000055      -0.00000031       0.00002810
C       -0.00000001       5.64532808       1.65003042       0.00000054      -0.00000029       0.00000000
C        1.22224939       4.93966205       4.95009128      -0.00000055       0.00000032       0.00000589
C        0.00000000       4.23399605       8.25015212      -0.00000042       0.00000160       0.00000104
C        0.00000000       4.23399605      11.55021298       0.00000055      -0.00000032       0.00000000
C       -0.00000001       5.64532808       8.25015212       0.00000056      -0.00000034      -0.00000000
C        1.22224939       4.93966205      11.55021298      -0.00000055       0.00000032      -0.00000000
C        0.00000000       4.23399605      14.85027383      -0.00000055       0.00000032      -0.00000000
C        0.00000000       4.23399605      18.15033467       0.00000055      -0.00000032       0.00000000
C       -0.00000001       5.64532808      14.85027383       0.00000055      -0.00000032      -0.00000000
C        1.22224939       4.93966205      18.15033467      -0.00000055       0.00000032       0.00000000
C       -1.22224938       6.35099408       1.65003042      -0.00000055       0.00000032       0.00000000
C       -1.22224938       6.35099408       4.95009128       0.00000055      -0.00000032      -0.00000000
C       -1.22224939       7.76232610       1.65003042       0.00000054      -0.00000033      -0.00000000
C        0.00000001       7.05666008       4.95009128      -0.00000055       0.00000032      -0.00000000
C       -1.22224938       6.35099408       8.25015212      -0.00000055       0.00000032       0.00000000
C       -1.22224938       6.35099408      11.55021298       0.00000055      -0.00000032       0.00000000
C       -1.22224939       7.76232610       8.25015212       0.00000053      -0.00000030      -0.00000000
C        0.00000001       7.05666008      11.55021298      -0.00000055       0.00000032      -0.00000000
C       -1.22224938       6.35099408      14.85027383      -0.00000055       0.00000032      -0.00000000
C       -1.22224938       6.35099408      18.15033467       0.00000055      -0.00000032       0.00000000
C       -1.22224939       7.76232610      14.85027383       0.00000058      -0.00000032       0.00000000
C        0.00000001       7.05666008      18.15033467      -0.00000055       0.00000032       0.00000000
C       -2.44449876       8.46799210       1.65003042      -0.00000068       0.00000009       0.00000208
C       -2.44449876       8.46799210       4.95009128       0.00000056      -0.00000032       0.00002811
C       -2.44449877       9.87932413       1.65003042       0.00000350      -0.00000076      -0.00000107
C       -1.22224937       9.17365810       4.95009128      -0.00000055       0.00000032       0.00000589
C       -2.44449876       8.46799210       8.25015212       0.00000062      -0.00000021       0.00000104
C       -2.44449876       8.46799210      11.55021298       0.00000055      -0.00000032       0.00000001
C       -2.44449877       9.87932413       8.25015212      -0.00000138       0.00000080      -0.00000233
C       -1.22224937       9.17365810      11.55021298      -0.00000055       0.00000032      -0.00000000
C       -2.44449876       8.46799210      14.85027383      -0.00000159       0.00000107       0.00000104
C       -2.44449876       8.46799210      18.15033467       0.00000055      -0.00000032       0.00002811
C       -2.44449877       9.87932413      14.85027383      -0.00000048      -0.00000098       0.00000126
C       -1.22224937       9.17365810      18.15033467      -0.00000055       0.00000032       0.00000174
C        4.88899752       0.00000000       1.65003042      -0.00000162       0.00000107       0.00000104
C        4.88899752       0.00000000       4.95009128       0.00000056      -0.00000032       0.00002810
C        4.88899751       1.41133202       1.65003042      -0.00000048      -0.00000098       0.00000126
C        6.11124691       0.70566600       4.95009128      -0.00000055       0.00000032       0.00000174
C        4.88899752       0.00000000       8.25015212       0.00000049      -0.00000044       0.00000104
C        4.88899752       0.00000000      11.55021298       0.00000055      -0.00000032       0.00000000
C        4.88899751       1.41133202       8.25015212       0.00000158       0.00000035       0.00000126
C        6.11124691       0.70566600      11.55021298      -0.00000055       0.00000032      -0.00000000
C        4.88899752       0.00000000      14.85027383      -0.00000052       0.00000032       0.00000000
C        4.88899752       0.00000000      18.15033467       0.00000055      -0.00000032       0.00000207
C        4.88899751       1.41133202      14.85027383       0.00000055      -0.00000032      -0.00000000
C        6.11124691       0.70566600      18.15033467      -0.00000055       0.00000032       0.00000000
C        3.66674814       2.11699803       1.65003042       0.00000113       0.00000128      -0.00000044
C        3.66674814       2.11699803       4.95009128       0.00000055      -0.00000032      -0.00003419
C        3.66674813       3.52833005       1.65003042      -0.00000054      -0.00000087       0.00000126
C        4.88899753       2.82266403       4.95009128      -0.00000055       0.00000032       0.00000589
C        3.66674814       2.11699803       8.25015212      -0.00000225      -0.00000066      -0.00000044
C        3.66674814       2.11699803      11.55021298       0.00000056      -0.00000031       0.00000003
C        3.66674813       3.52833005       8.25015212       0.00000164       0.00000024       0.00000126
C        4.88899753       2.82266403      11.55021298      -0.00000055       0.00000032      -0.00000000
C        3.66674814       2.11699803      14.85027383      -0.00000053       0.00000034       0.00000000
C        3.66674814       2.11699803      18.15033467       0.00000054      -0.00000032       0.00000210
C        3.66674813       3.52833005      14.85027383       0.00000055      -0.00000032      -0.00000000
C        4.88899753       2.82266403      18.15033467      -0.00000055       0.00000032       0.00000000
C        2.44449876       4.23399605       1.65003042      -0.00000042      -0.00000096       0.00000104
C        2.44449876       4.23399605       4.95009128       0.00000055      -0.00000031       0.00002810
C        2.44449875       5.64532808       1.65003042       0.00000058      -0.00000027      -0.00000000
C        3.66674815       4.93966205       4.95009128      -0.00000055       0.00000032       0.00000174
C        2.44449876       4.23399605       8.25015212      -0.00000068       0.00000160       0.00000104
C        2.44449876       4.23399605      11.55021298       0.00000055      -0.00000032       0.00000000
C        2.44449875       5.64532808       8.25015212       0.00000054      -0.00000034      -0.00000000
C        3.66674815       4.93966205      11.55021298      -0.00000055       0.00000032      -0.00000000
C        2.44449876       4.23399605      14.85027383      -0.00000055       0.00000032      -0.00000000
C        2.44449876       4.23399605      18.15033467       0.00000055      -0.00000032       0.00000000
C        2.44449875       5.64532808      14.85027383       0.00000053      -0.00000034       0.00000000
C        3.66674815       4.93966205      18.15033467      -0.00000055       0.00000032       0.00000174
C        1.22224938       6.35099408       1.65003042      -0.00000055       0.00000032       0.00000000
C        1.22224938       6.35099408       4.95009128       0.00000055      -0.00000032      -0.00000000
C        1.22224937       7.76232610       1.65003042       0.00000058      -0.00000031      -0.00000000
C        2.44449877       7.05666008       4.95009128      -0.00000055       0.00000032      -0.00000000
C        1.22224938       6.35099408       8.25015212      -0.00000055       0.00000032       0.00000000
C        1.22224938       6.35099408      11.55021298       0.00000055      -0.00000032      -0.00000000
C        1.22224937       7.76232610       8.25015212       0.00000055      -0.00000032       0.00000000
C        2.44449877       7.05666008      11.55021298      -0.00000055       0.00000032      -0.00000000
C        1.22224938       6.35099408      14.85027383      -0.00000055       0.00000032      -0.00000000
C        1.22224938       6.35099408      18.15033467       0.00000055      -0.00000032       0.00000000
C        1.22224937       7.76232610      14.85027383       0.00000052      -0.00000032       0.00000000
C        2.44449877       7.05666008      18.15033467      -0.00000055       0.00000032       0.00000589
C        0.00000000       8.46799210       1.65003042      -0.00000055       0.00000032      -0.00000000
C        0.00000000       8.46799210       4.95009128       0.00000055      -0.00000032      -0.00000000
C       -0.00000001       9.87932413       1.65003042       0.00000058      -0.00000032       0.00000000
C        1.22224939       9.17365810       4.95009128      -0.00000055       0.00000032      -0.00000000
C        0.00000000       8.46799210       8.25015212      -0.00000055       0.00000032       0.00000000
C        0.00000000       8.46799210      11.55021298       0.00000055      -0.00000032      -0.00000000
C       -0.00000001       9.87932413       8.25015212       0.00000052      -0.00000031      -0.00000000
C        1.22224939       9.17365810      11.55021298      -0.00000055       0.00000032      -0.00000000
C        0.00000000       8.46799210      14.85027383      -0.00000055       0.00000032      -0.00000000
C        0.00000000       8.46799210      18.15033467       0.00000055      -0.00000032       0.00000000
C       -0.00000001       9.87932413      14.85027383       0.00000055      -0.00000032      -0.00000000
C        1.22224939       9.17365810      18.15033467      -0.00000055       0.00000032       0.00000174
C        7.33349628       0.00000000       1.65003042      -0.00000052       0.00000031      -0.00000000
C        7.33349628       0.00000000       4.95009128       0.00000055      -0.00000032       0.00000000
C        7.33349627       1.41133202       1.65003042       0.00000055      -0.00000032      -0.00000000
C        8.55574567       0.70566600       4.95009128      -0.00000055       0.00000032       0.00000174
C        7.33349628       0.00000000       8.25015212      -0.00000055       0.00000032       0.00000000
C        7.33349628       0.00000000      11.55021298       0.00000055      -0.00000032       0.00000000
C        7.33349627       1.41133202       8.25015212       0.00000055      -0.00000032       0.00000000
C        8.55574567       0.70566600      11.55021298      -0.00000055       0.00000032      -0.00000000
C        7.33349628       0.00000000      14.85027383      -0.00000058       0.00000032       0.00000000
C        7.33349628       0.00000000      18.15033467       0.00000055      -0.00000032       0.00000207
C        7.33349627       1.41133202      14.85027383       0.00000055      -0.00000032       0.00000000
C        8.55574567       0.70566600      18.15033467      -0.00000055       0.00000032       0.00000589
C        6.11124690       2.11699803       1.65003042      -0.00000052       0.00000032       0.00000000
C        6.11124690       2.11699803       4.95009128       0.00000055      -0.00000032       0.00000207
C        6.11124689       3.52833005       1.65003042       0.00000055      -0.00000032      -0.00000000
C        7.33349629       2.82266403       4.95009128      -0.00000055       0.00000032      -0.00000000
C        6.11124690       2.11699803       8.25015212      -0.00000058       0.00000031      -0.00000000
C        6.11124690       2.11699803      11.55021298       0.00000055      -0.00000032       0.00000000
C        6.11124689       3.52833005       8.25015212       0.00000055      -0.00000032       0.00000000
C        7.33349629       2.82266403      11.55021298      -0.00000055       0.00000032      -0.00000000
C        6.11124690       2.11699803      14.85027383      -0.00000055       0.00000032      -0.00000000
C        6.11124690       2.11699803      18.15033467       0.00000055      -0.00000032       0.00000000
C        6.11124689       3.52833005      14.85027383       0.00000055      -0.00000032       0.00000000
C        7.33349629       2.82266403      18.15033467      -0.00000055       0.00000032       0.00000000
C        4.88899752       4.23399605       1.65003042      -0.00000052       0.00000036      -0.00000000
C        4.88899752       4.23399605       4.95009128       0.00000055      -0.00000032       0.00000207
C        4.88899751       5.64532808       1.65003042       0.00000061      -0.00000154       0.00000126
C        6.11124691       4.93966205       4.95009128      -0.00000055       0.00000032      -0.00000000
C        4.88899752       4.23399605       8.25015212      -0.00000057       0.00000030      -0.00000000
C        4.88899752       4.23399605      11.55021298       0.00000055      -0.00000032       0.00000000
C        4.88899751       5.64532808       8.25015212       0.00000055      -0.00000032       0.00000000
C        6.11124691       4.93966205      11.55021298      -0.00000055       0.00000032      -0.00000000
C        4.88899752       4.23399605      14.85027383      -0.00000056       0.00000029       0.00000000
C        4.88899752       4.23399605      18.15033467       0.00000055      -0.00000032       0.00000207
C        4.88899751       5.64532808      14.85027383       0.00000048       0.00000091       0.00000126
C        6.11124691       4.93966205      18.15033467      -0.00000055       0.00000032       0.00000589
C        3.66674814       6.35099408       1.65003042      -0.00000172      -0.00000021       0.00000104
C        3.66674814       6.35099408       4.95009128       0.00000055      -0.00000032       0.00000000
C        3.66674813       7.76232610       1.65003042       0.00000246       0.00000077      -0.00000233
C        4.88899753       7.05666008       4.95009128      -0.00000053       0.00000034       0.00000168
C        3.66674814       6.35099408       8.25015212      -0.00000055       0.00000032       0.00000000
C        3.66674814       6.35099408      11.55021298       0.00000055      -0.00000032       0.00000000
C        3.66674813       7.76232610       8.25015212       0.00000057      -0.00000030      -0.00000000
C        4.88899753       7.05666008      11.55021298      -0.00000057       0.00000029      -0.00000006
C        3.66674814       6.35099408      14.85027383       0.00000062       0.00000084       0.00000104
C        3.66674814       6.35099408      18.15033467       0.00000055      -0.00000032       0.00002810
C        3.66674813       7.76232610      14.85027383      -0.00000138      -0.00000143      -0.00000233
C        4.88899753       7.05666008      18.15033467      -0.00000055       0.00000031       0.00001745
C        2.44449876       8.46799210       1.65003042      -0.00000159      -0.00000044       0.00000104
C        2.44449876       8.46799210       4.95009128       0.00000055      -0.00000032       0.00000000
C        2.44449875       9.87932413       1.65003042      -0.00000051       0.00000035       0.00000126
C        3.66674815       9.17365810       4.95009128      -0.00000052       0.00000032       0.00000583
C        2.44449876       8.46799210       8.25015212      -0.00000055       0.00000032       0.00000000
C        2.44449876       8.46799210      11.55021298       0.00000055      -0.00000032       0.00000000
C        2.44449875       9.87932413       8.25015212       0.00000058      -0.00000031      -0.00000000
C        3.66674815       9.17365810      11.55021298      -0.00000058       0.00000031      -0.00000006
C        2.44449876       8.46799210      14.85027383       0.00000049       0.00000107       0.00000104
C        2.44449876       8.46799210      18.15033467       0.00000055      -0.00000032       0.00002810
C        2.44449875       9.87932413      14.85027383       0.00000158      -0.00000098       0.00000126
C        3.66674815       9.17365810      18.15033467      -0.00000055       0.00000032       0.00001745
C        9.77799504       0.00000000       1.65003042       0.00000218       0.00000009       0.00000060
C        9.77799504       0.00000000       4.95009128       0.00000054      -0.00000031       0.00002814
C        9.77799503       1.41133202       1.65003042       0.00000048      -0.00000043       0.00000252
C       11.00024443       0.70566600       4.95009128      -0.00000054       0.00000029       0.00001739
C        9.77799504       0.00000000       8.25015212      -0.00000159      -0.00000044       0.00000104
C        9.77799504       0.00000000      11.55021298       0.00000056      -0.00000032       0.00000004
C        9.77799503       1.41133202       8.25015212      -0.00000048       0.00000035       0.00000126
C       11.00024443       0.70566600      11.55021298      -0.00000053       0.00000035      -0.00000013
C        9.77799504       0.00000000      14.85027383      -0.00000224       0.00000130      -0.00000044
C        9.77799504       0.00000000      18.15033467       0.00000055      -0.00000032      -0.00003418
C        9.77799503       1.41133202      14.85027383       0.00000164      -0.00000087       0.00000126
C       11.00024443       0.70566600      18.15033467      -0.00000059       0.00000031       0.00001739
C        8.55574566       2.11699803       1.65003042      -0.00000056       0.00000030      -0.00000000
C        8.55574566       2.11699803       4.95009128       0.00000055      -0.00000032       0.00000207
C        8.55574565       3.52833005       1.65003042       0.00000055      -0.00000032      -0.00000000
C        9.77799505       2.82266403       4.95009128      -0.00000055       0.00000032       0.00000589
C        8.55574566       2.11699803       8.25015212      -0.00000052       0.00000031      -0.00000000
C        8.55574566       2.11699803      11.55021298       0.00000055      -0.00000032      -0.00000000
C        8.55574565       3.52833005       8.25015212       0.00000055      -0.00000032       0.00000000
C        9.77799505       2.82266403      11.55021298      -0.00000055       0.00000032      -0.00000000
C        8.55574566       2.11699803      14.85027383      -0.00000057       0.00000034       0.00000000
C        8.55574566       2.11699803      18.15033467       0.00000055      -0.00000032       0.00000207
C        8.55574565       3.52833005      14.85027383       0.00000055      -0.00000032       0.00000000
C        9.77799505       2.82266403      18.15033467      -0.00000055       0.00000032       0.00000174
C        7.33349628       4.23399605       1.65003042      -0.00000056       0.00000034      -0.00000000
C        7.33349628       4.23399605       4.95009128       0.00000055      -0.00000032       0.00000000
C        7.33349627       5.64532808       1.65003042       0.00000049      -0.00000154       0.00000126
C        8.55574567       4.93966205       4.95009128      -0.00000055       0.00000032      -0.00000000
C        7.33349628       4.23399605       8.25015212      -0.00000055       0.00000032       0.00000000
C        7.33349628       4.23399605      11.55021298       0.00000055      -0.00000032      -0.00000000
C        7.33349627       5.64532808       8.25015212       0.00000055      -0.00000032       0.00000000
C        8.55574567       4.93966205      11.55021298      -0.00000055       0.00000032      -0.00000000
C        7.33349628       4.23399605      14.85027383      -0.00000054       0.00000029       0.00000000
C        7.33349628       4.23399605      18.15033467       0.00000055      -0.00000032       0.00000207
C        7.33349627       5.64532808      14.85027383       0.00000061       0.00000091       0.00000126
C        8.55574567       4.93966205      18.15033467      -0.00000055       0.00000032       0.00000174
C        6.11124690       6.35099408       1.65003042      -0.00000056       0.00000225      -0.00000044
C        6.11124690       6.35099408       4.95009128       0.00000055      -0.00000033       0.00000210
C        6.11124689       7.76232610       1.65003042       0.00000048       0.00000269      -0.00000077
C        7.33349629       7.05666008       4.95009128      -0.00000057       0.00000034       0.00000583
C        6.11124690       6.35099408       8.25015212      -0.00000054       0.00000034      -0.00000000
C        6.11124690       6.35099408      11.55021298       0.00000055      -0.00000031       0.00000003
C        6.11124689       7.76232610       8.25015212       0.00000061      -0.00000154       0.00000126