<UPF version="2.0.1">
<PP_INFO>
Generated by new atomic code, or converted to UPF format
Author:
Generation date:
Pseudopotential type: NC
Element: Ge
Functional:  SLA  PZ   NOGX NOGC
Suggested minimum cutoff for wavefunctions:   0. Ry
Suggested minimum cutoff for charge density:   0. Ry
The Pseudo was generated with a Scalar-Relativistic Calculation
L component and cutoff radius for Local Potential:  0   0.0000
Valence configuration:
nl pn  l   occ       Rcut    Rcut US       E pseu
4S  0  0  2.00      0.000      0.000     0.000000
4P  0  1  1.50      0.000      0.000     0.000000
Generation configuration: not available.
</PP_INFO>
<!--
END OF HUMAN READABLE SECTION
-->
<PP_HEADER generated="Generated by new atomic code, or converted to UPF format" author="" date="" comment="" element="Ge" pseudo_type="NC" relativistic="scalar" is_ultrasoft="false" is_paw="false" is_coulomb="false" has_so="false" has_wfc="false" has_gipaw="false" paw_as_gipaw="false" core_correction="false" functional=" SLA  PZ   NOGX NOGC" z_valence="4.000000000000e0" total_psenergy="0.000000000000e0" wfc_cutoff="0.000000000000e0" rho_cutoff="0.000000000000e0" l_max="1" l_max_rho="0" l_local="0" mesh_size="291" number_of_wfc="2" number_of_proj="2"/>
<PP_MESH dx="4.500000000001e-2" mesh="291" xmin="-5.000000000002e0" rmax="9.793109285280e1" zmesh="3.200000000000e1">
<PP_R>
2.105608437210000e-4 2.202525087380000e-4 2.303902603550000e-4 2.409946309830000e-4
2.520870980970000e-4 2.636901277330000e-4 2.758272199910000e-4 2.885229566320000e-4
3.018030508610000e-4 3.156943994060001e-4 3.302251369950000e-4 3.454246933389999e-4
3.613238527330001e-4 3.779548164089999e-4 3.953512677499999e-4 4.135484405170001e-4
4.325831902020000e-4 4.524940686800000e-4 4.733214022830000e-4 4.951073734790000e-4
5.178961063049999e-4 5.417337557330000e-4 5.666686011500000e-4 5.927511441380000e-4
6.200342107620001e-4 6.485730585530001e-4 6.784254884330000e-4 7.096519617730000e-4
7.423157228530000e-4 7.764829269529999e-4 8.122227743360000e-4 8.496076504079999e-4
8.887132723180001e-4 9.296188423160000e-4 9.724072081579999e-4 1.017165030910000e-3
1.063982960460000e-3 1.112955819110000e-3 1.164182793630000e-3 1.217767636170000e-3
1.273818874320000e-3 1.332450031020000e-3 1.393779854380000e-3 1.457932558260000e-3
1.525038073810000e-3 1.595232312630000e-3 1.668657442040000e-3 1.745462173020000e-3
1.825802061390000e-3 1.909839822890000e-3 1.997745662710000e-3 2.089697620210000e-3
2.185881929520000e-3 2.286493396750000e-3 2.391735794500000e-3 2.501822274590000e-3
2.616975799760000e-3 2.737429595250000e-3 2.863427621170000e-3 2.995225066580000e-3
3.133088866340001e-3 3.277298241760001e-3 3.428145266110000e-3 3.585935456160000e-3
3.750988390980000e-3 3.923638359160000e-3 4.104235035889999e-3 4.293144191150001e-3
4.490748430550001e-3 4.697447970200000e-3 4.913661447299999e-3 5.139826768040000e-3
5.376401994469999e-3 5.623866272279999e-3 5.882720801210001e-3 6.153489850130000e-3
6.436721818900000e-3 6.732990349050000e-3 7.042895485610000e-3 7.367064892370001e-3
7.706155123180000e-3 8.060852951619999e-3 8.431876762020000e-3 8.819978004390000e-3
9.225942716379999e-3 9.650593115250000e-3 1.009478926320000e-2 1.055943080920000e-2
1.104545881120000e-2 1.155385764200000e-2 1.208565698300000e-2 1.264193390950000e-2
1.322381507240000e-2 1.383247898000000e-2 1.446915838470000e-2 1.513514277990000e-2
1.583178101140000e-2 1.656048400990000e-2 1.732272764800000e-2 1.812005572940000e-2
1.895408311600000e-2 1.982649899840000e-2 2.073907031680000e-2 2.169364533990001e-2
2.269215740860000e-2 2.373662885080000e-2 2.482917507820000e-2 2.597200887040000e-2
2.716744485620000e-2 2.841790420210000e-2 2.972591951560000e-2 3.109413997480000e-2
3.252533669350000e-2 3.402240833430000e-2 3.558838697890000e-2 3.722644426910000e-2
3.893989783090000e-2 4.073221799310000e-2 4.260703481660000e-2 4.456814544630000e-2
4.661952180130000e-2 4.876531861979999e-2 5.100988187360000e-2 5.335775757040000e-2
5.581370096090001e-2 5.838268616980001e-2 6.106991626990000e-2 6.388083382060000e-2
6.682113189050000e-2 6.989676558809999e-2 7.311396412270001e-2 7.647924342070000e-2
7.999941932279999e-2 8.368162138820001e-2 8.753330733429999e-2 9.156227814169998e-2
9.577669385289999e-2 1.001850901000000e-1 1.047963953920000e-1 1.096199491980000e-1
1.146655208630000e-1 1.199433293940000e-1 1.254640641560000e-1 1.312389065250000e-1
1.372795525290000e-1 1.435982365410000e-1 1.502077560550000e-1 1.571214976080000e-1
1.643534638890000e-1 1.719183021000000e-1 1.798313336250000e-1 1.881085850560000e-1
1.967668206570000e-1 2.058235763130000e-1 2.152971950490000e-1 2.252068641820000e-1
2.355726541770000e-1 2.464155593020000e-1 2.577575401450000e-1 2.696215680930000e-1
2.820316718570000e-1 2.950129861390000e-1 3.085918025370000e-1 3.227956227930000e-1
3.376532144980000e-1 3.531946693520000e-1 3.694514641140000e-1 3.864565243470000e-1
4.042442911110000e-1 4.228507907110000e-1 4.423137076680000e-1 4.626724610400000e-1
4.839682842610000e-1 5.062443086490001e-1 5.295456507670000e-1 5.539195037960000e-1
5.794152331170000e-1 6.060844762960000e-1 6.339812476640000e-1 6.631620477159999e-1
6.936859775450000e-1 7.256148585400000e-1 7.590133575969999e-1 7.939491180890000e-1
8.304928968710000e-1 8.687187075830000e-1 9.087039705560001e-1 9.505296696110001e-1
9.942805160830000e-1 1.040045120390000e0 1.087916171490000e0 1.137990624620000e0
1.190369897670000e0 1.245160076560000e0 1.302472130130000e0 1.362422134870000e0
1.425131510030000e0 1.490727263520000e0 1.559342249170000e0 1.631115435760000e0
1.706192188540000e0 1.784724563570000e0 1.866871615750000e0 1.952799720950000e0
2.042682912940000e0 2.136703235890000e0 2.235051113100000e0 2.337925732620000e0
2.445535450720000e0 2.558098213850000e0 2.675842000070000e0 2.799005280790000e0
2.927837503730000e0 3.062599598190000e0 3.203564503450000e0 3.351017721630000e0
3.505257895870000e0 3.666597415240000e0 3.835363047410000e0 4.011896600460000e0
4.196555615150000e0 4.389714089110000e0 4.591763234240000e0 4.803112269120000e0
5.024189247770000e0 5.255441926620000e0 5.497338671380000e0 5.750369405610000e0
6.015046603040000e0 6.291906325430000e0 6.581509308330000e0 6.884442096770000e0
7.201318233150000e0 7.532779499940000e0 7.879497219480000e0 8.242173613649999e0
8.621543226089999e0 9.018374409890001e0 9.433470883840000e0 9.867673360130000e0
1.032186124720000e1 1.079695443070000e1 1.129391513660000e1 1.181374988040000e1
1.235751150490000e1 1.292630131320000e1 1.352127129920000e1 1.414362648030000e1
1.479462733860000e1 1.547559237310000e1 1.618790077090000e1 1.693299519980000e1
1.771238473070000e1 1.852764789370000e1 1.938043587540000e1 2.027247586280000e1
2.120557454190000e1 2.218162175620000e1 2.320259433490000e1 2.427056009650000e1
2.538768203650000e1 2.655622270870000e1 2.777854880720000e1 2.905713596020000e1
3.039457374350000e1 3.179357092570000e1 3.325696095430000e1 3.478770769410000e1
3.638891143040000e1 3.806381514790001e1 3.981581109920000e1 4.164844767460000e1
4.356543658960000e1 4.557066040180000e1 4.766818037470000e1 4.986224470310000e1
5.215729711700000e1 5.455798588190000e1 5.706917321300001e1 5.969594512280000e1
6.244362172200001e1 6.531776799479999e1 6.832420506960000e1 7.146902200900001e1
7.475858814180000e1 7.819956596380000e1 8.179892463090001e1 8.556395407450001e1
8.950227976580001e1 9.362187816040000e1 9.793109285280002e1
</PP_R>
<PP_RAB>
9.475237967460000e-6 9.911362893229999e-6 1.036756171600000e-5 1.084475839420000e-5
1.134391941440000e-5 1.186605574800000e-5 1.241222489960000e-5 1.298353304850000e-5
1.358113728870000e-5 1.420624797330000e-5 1.486013116480000e-5 1.554411120030000e-5
1.625957337300000e-5 1.700796673840000e-5 1.779080704880000e-5 1.860967982330000e-5
1.946624355910000e-5 2.036223309060000e-5 2.129946310270000e-5 2.227983180650000e-5
2.330532478370000e-5 2.437801900800000e-5 2.550008705180000e-5 2.667380148620000e-5
2.790153948430000e-5 2.918578763490000e-5 3.052914697950000e-5 3.193433827980000e-5
3.340420752840001e-5 3.494173171290000e-5 3.655002484510000e-5 3.823234426840000e-5
3.999209725430000e-5 4.183284790420000e-5 4.375832436710001e-5 4.577242639090001e-5
4.787923322050000e-5 5.008301185970000e-5 5.238822571340000e-5 5.479954362740001e-5
5.732184934460001e-5 5.996025139589999e-5 6.272009344730000e-5 6.560696512190001e-5
6.862671332160000e-5 7.178545406830001e-5 7.508958489169999e-5 7.854579778569999e-5
8.216109276259999e-5 8.594279203019999e-5 8.989855482190000e-5 9.403639290930000e-5
9.836468682840000e-5 1.028922028540000e-4 1.076281107520000e-4 1.125820023560000e-4
1.177639109890000e-4 1.231843317860000e-4 1.288542429530000e-4 1.347851279960000e-4
1.409889989850000e-4 1.474784208790000e-4 1.542665369750000e-4 1.613670955270000e-4
1.687944775940000e-4 1.765637261620000e-4 1.846905766150000e-4 1.931914886020000e-4
2.020836793750000e-4 2.113851586590000e-4 2.211147651290000e-4 2.312922045620000e-4
2.419380897510000e-4 2.530739822530000e-4 2.647224360540000e-4 2.769070432560000e-4
2.896524818510000e-4 3.029845657069999e-4 3.169302968520000e-4 3.315179201570000e-4
3.467769805430000e-4 3.627383828230000e-4 3.794344542910000e-4 3.968990101979999e-4
4.151674222370000e-4 4.342766901860000e-4 4.542655168439999e-4 4.751743864140000e-4
4.970456465050000e-4 5.199235938899999e-4 5.438545642330000e-4 5.688870259260000e-4
5.950716782590001e-4 6.224615541020000e-4 6.511121273130001e-4 6.810814250929999e-4
7.124301455140001e-4 7.452217804470001e-4 7.795227441580000e-4 8.154025078219998e-4
8.529337402210000e-4 8.921924549270001e-4 9.332581642539999e-4 9.762140402969999e-4
1.021147083380000e-3 1.068148298290000e-3 1.117312878520000e-3 1.168740399170000e-3
1.222535018530000e-3 1.278805689100000e-3 1.337666378200000e-3 1.399236298860000e-3
1.463640151210000e-3 1.531008375040000e-3 1.601477414050000e-3 1.675189992110000e-3
1.752295402390000e-3 1.832949809690000e-3 1.917316566750000e-3 2.005566545080000e-3
2.097878481060000e-3 2.194439337890000e-3 2.295444684310000e-3 2.401099090670000e-3
2.511616543240000e-3 2.627220877640000e-3 2.748146232140000e-3 2.874637521930000e-3
3.006950935070000e-3 3.145354451470000e-3 3.290128385520000e-3 3.441565953929999e-3
3.599973869530000e-3 3.765672962470000e-3 3.938998830050000e-3 4.120302516380000e-3
4.309951223380000e-3 4.508329054500000e-3 4.715837792650000e-3 4.932897713919999e-3
5.159948438840000e-3 5.397449822720001e-3 5.645882887019999e-3 5.905750793609999e-3
6.177579863790000e-3 6.461920644340000e-3 6.759349022499999e-3 7.070467392379999e-3
7.395905875000000e-3 7.736323594520000e-3 8.092410013129999e-3 8.464886327540000e-3
8.854506929570000e-3 9.262060934079999e-3 9.688373777219999e-3 1.013430888820000e-2
1.060076943800000e-2 1.108870016860000e-2 1.159908930650000e-2 1.213297056420000e-2
1.269142523360000e-2 1.327558437630000e-2 1.388663111410000e-2 1.452580302570000e-2
1.519439465240000e-2 1.589376012090000e-2 1.662531588510000e-2 1.739054359560000e-2
1.819099310000000e-2 1.902828558200000e-2 1.990411684510000e-2 2.082026074680000e-2
2.177857279170000e-2 2.278099388920000e-2 2.382955428450000e-2 2.492637767080000e-2
2.607368549030000e-2 2.727380143330000e-2 2.852915614490001e-2 2.984229214720000e-2
3.121586898950000e-2 3.265266863430000e-2 3.415560109190000e-2 3.572771031400000e-2
3.737218035920000e-2 3.909234184130000e-2 4.089167867500000e-2 4.277383513250000e-2
4.474262322380000e-2 4.680203041740000e-2 4.895622771690000e-2 5.120957810800000e-2
5.356664539510000e-2 5.603220344510000e-2 5.861124585570000e-2 6.130899606900000e-2
6.413091795120001e-2 6.708272685850001e-2 7.017040121260000e-2 7.340019460940001e-2
7.677864848410000e-2 8.031260536050000e-2 8.400922270900001e-2 8.787598744280000e-2
9.192073108220001e-2 9.615164561520000e-2 1.005773000900000e-1 1.052066579680000e-1
1.100490952820000e-1 1.151144196230000e-1 1.204128900030000e-1 1.259552376350000e-1
1.317526876680000e-1 1.378169819190000e-1 1.441604026550000e-1 1.507957974730000e-1
1.577366053140000e-1 1.649968836860000e-1 1.725913371340000e-1 1.805353470210000e-1
1.888450026820000e-1 1.975371340100000e-1 2.066293455410000e-1 2.161400521100000e-1
2.260885161500000e-1 2.364948866980000e-1 2.473802402120000e-1 2.587666232530000e-1
2.706770971370000e-1 2.831357846440000e-1 2.961679188750000e-1 3.097998943540000e-1
3.240593204920000e-1 3.389750774970000e-1 3.545773748770000e-1 3.708978126140000e-1
3.879694451740000e-1 4.058268484450000e-1 4.245061897729999e-1 4.440453012060000e-1
4.644837561230000e-1 4.858629493800001e-1 5.082261811490000e-1 5.316187446160000e-1
5.560880177180000e-1 5.816835590950000e-1 6.084572084640000e-1 6.364631916160000e-1
6.657582302360000e-1 6.964016567910000e-1 7.284555346900000e-1 7.619847839900000e-1
7.970573128800000e-1 8.337441552169999e-1 8.721196143929999e-1 9.122614138279999e-1
9.542508543840000e-1 9.981729790270000e-1 1.044116745070000e0 1.092175204340000e0
1.142445691640000e0 1.195030021890000e0 1.250034696320000e0 1.307571118210000e0
1.367755818460000e0 1.430710691660000e0 1.496563242940000e0 1.565446846230000e0
1.637501014370000e0 1.712871681660000e0 1.791711499460000e0 1.874180145360000e0
1.960444646530000e0 2.050679718080000e0 2.145068116860000e0 2.243801011640000e0
2.347078370270000e0 2.455109364690000e0 2.568112794590000e0 2.686317530520000e0
2.809962977490000e0 2.939299559770000e0 3.074589228130000e0 3.216105990400000e0
3.364136466380000e0 3.518980468370000e0 3.680951608390000e0 3.850377933350000e0
4.027602589460000e0 4.212984517220000e0 4.406899178370000e0
</PP_RAB>
</PP_MESH>
<PP_LOCAL columns="4">
-3.525072669310000e0 -3.525072684040000e0 -3.525072700260000e0 -3.525072717940000e0
-3.525072737210000e0 -3.525072758430000e0 -3.525072781590000e0 -3.525072806850000e0
-3.525072834600000e0 -3.525072864970000e0 -3.525072898170000e0 -3.525072934440000e0
-3.525072974210000e0 -3.525073017620000e0 -3.525073065190000e0 -3.525073117240000e0
-3.525073174270000e0 -3.525073236540000e0 -3.525073304780000e0 -3.525073379400000e0
-3.525073460980000e0 -3.525073550250000e0 -3.525073648050000e0 -3.525073754990000e0
-3.525073871980000e0 -3.525074000090000e0 -3.525074140120000e0 -3.525074293400000e0
-3.525074461060000e0 -3.525074644590000e0 -3.525074845450000e0 -3.525075065070000e0
-3.525075305510000e0 -3.525075568540000e0 -3.525075856260000e0 -3.525076171210000e0
-3.525076515760000e0 -3.525076892740000e0 -3.525077305310000e0 -3.525077756610000e0
-3.525078250460000e0 -3.525078790890000e0 -3.525079382040000e0 -3.525080028960000e0
-3.525080736860000e0 -3.525081511420000e0 -3.525082358870000e0 -3.525083286160000e0
-3.525084300750000e0 -3.525085410880000e0 -3.525086625580000e0 -3.525087954660000e0
-3.525089408840000e0 -3.525091000130000e0 -3.525092741170000e0 -3.525094646090000e0
-3.525096730560000e0 -3.525099011200000e0 -3.525101506680000e0 -3.525104237240000e0
-3.525107224770000e0 -3.525110493800000e0 -3.525114070510000e0 -3.525117984150000e0
-3.525122266420000e0 -3.525126951840000e0 -3.525132078490000e0 -3.525137687910000e0
-3.525143825660000e0 -3.525150541230000e0 -3.525157889320000e0 -3.525165929360000e0
-3.525174726510000e0 -3.525184352090000e0 -3.525194883940000e0 -3.525206407680000e0
-3.525219016410000e0 -3.525232812460000e0 -3.525247907670000e0 -3.525264424260000e0
-3.525282495960000e0 -3.525302269290000e0 -3.525323904440000e0 -3.525347576710000e0
-3.525373477850000e0 -3.525401817580000e0 -3.525432825450000e0 -3.525466752780000e0
-3.525503874060000e0 -3.525544490210000e0 -3.525588929800000e0 -3.525637552850000e0
-3.525690752980000e0 -3.525748960740000e0 -3.525812647310000e0 -3.525882328090000e0
-3.525958566860000e0 -3.526041980510000e0 -3.526133243620000e0 -3.526233094270000e0
-3.526342339840000e0 -3.526461863300000e0 -3.526592630800000e0 -3.526735698740000e0
-3.526892222500000e0 -3.527063466020000e0 -3.527250811370000e0 -3.527455770070000e0
-3.527679994960000e0 -3.527925293170000e0 -3.528193641190000e0 -3.528487199500000e0
-3.528808330130000e0 -3.529159615300000e0 -3.529543877690000e0 -3.529964202040000e0
-3.530423959830000e0 -3.530926835090000e0 -3.531476853030000e0 -3.532078410920000e0
-3.532736311750000e0 -3.533455801110000e0 -3.534242606460000e0 -3.535102980630000e0
-3.536043748080000e0 -3.537072355900000e0 -3.538196928160000e0 -3.539426324810000e0
-3.540770205650000e0 -3.542239098970000e0 -3.543844474710000e0 -3.545598824220000e0
-3.547515744880000e0 -3.549610030190000e0 -3.551897766830000e0 -3.554396436590000e0
-3.557125025310000e0 -3.560104136590000e0 -3.563356112460000e0 -3.566905157730000e0
-3.570777470490000e0 -3.575001375140000e0 -3.579607458750000e0 -3.584628708330000e0
-3.590100647250000e0 -3.596061467840000e0 -3.602552159200000e0 -3.609616623370000e0
-3.617301778450000e0 -3.625657640680000e0 -3.634737380970000e0 -3.644597348540000e0
-3.655297050210000e0 -3.666899079140000e0 -3.679468978990000e0 -3.693075031220000e0
-3.707787952180000e0 -3.723680483510000e0 -3.740826861220000e0 -3.759302144600000e0
-3.779181390390000e0 -3.800538656060000e0 -3.823445818810000e0 -3.847971202720000e0
-3.874178010590000e0 -3.902122567600000e0 -3.931852395260000e0 -3.963404150520000e0
-3.996801483930000e0 -4.032052893990000e0 -4.069149683240000e0 -4.108064146920000e0
-4.148748155000000e0 -4.191132308710000e0 -4.235125860700000e0 -4.280617577400000e0
-4.327477670900000e0 -4.375560829750000e0 -4.424710205110000e0 -4.474761949390000e0
-4.525549534970000e0 -4.576906595990000e0 -4.628666455590000e0 -4.680655859150000e0
-4.732679843240000e0 -4.784494291580000e0 -4.835762822350000e0 -4.885995559330000e0
-4.934469463420000e0 -4.980133626530000e0 -5.021508487790000e0 -5.056595164630000e0
-5.082819184270000e0 -5.097040082670000e0 -5.095661735750000e0 -5.074874107030000e0
-5.031041414100000e0 -4.961222039620000e0 -4.863763047070000e0 -4.738864203360000e0
-4.588967574890000e0 -4.418819279690000e0 -4.235089495640000e0 -4.045533831190000e0
-3.857819369470000e0 -3.678279349700000e0 -3.510938863200000e0 -3.357113801170000e0
-3.215712914100000e0 -3.084122184350000e0 -2.959332536750000e0 -2.838899339360000e0
-2.721438523780000e0 -2.606604880140000e0 -2.494725234880000e0 -2.386353174140000e0
-2.281950563370000e0 -2.181761284120000e0 -2.085827831820000e0 -1.994064369930000e0
-1.906324443960000e0 -1.822442048730000e0 -1.742250100560000e0 -1.665586717510000e0
-1.592296708130000e0 -1.522231643270000e0 -1.455249617720000e0 -1.391214969980000e0
-1.329998007990000e0 -1.271474746480000e0 -1.215526655850000e0 -1.162040422090000e0
-1.110907717310000e0 -1.062024980300000e0 -1.015293206810000e0 -9.706177490300000e-1
-9.279081238949999e-1 -8.870778298160001e-1 -8.480441714940000e-1 -8.107280924319999e-1
-7.750540148160000e-1 -7.409496864489999e-1 -7.083460344100000e-1 -6.771770251630000e-1
-6.473795308110000e-1 -6.188932012450000e-1 -5.916603419139999e-1 -5.656257969700000e-1
-5.407368375640001e-1 -5.169430550450000e-1 -4.941962588740000e-1 -4.724503790150000e-1
-4.516613726300000e-1 -4.317871348750000e-1 -4.127874136290000e-1 -3.946237279610000e-1
-3.772592902030000e-1 -3.606589314320000e-1 -3.447890302490000e-1 -3.296174446820000e-1
-3.151134470840000e-1 -3.012476619040000e-1 -2.879920061890000e-1 -2.753196327050000e-1
-2.632048755650000e-1 -2.516231982460000e-1 -2.405511438940000e-1 -2.299662878150000e-1
-2.198471920570000e-1 -2.101733619950000e-1 -2.009252048160000e-1 -1.920839898410000e-1
-1.836318105880000e-1 -1.755515485070000e-1 -1.678268383040000e-1 -1.604420348030000e-1
-1.533821812520000e-1 -1.466329790350000e-1 -1.401807587110000e-1 -1.340124523290000e-1
-1.281155669610000e-1 -1.224781593980000e-1 -1.170888119640000e-1 -1.119366093890000e-1
-1.070111167000000e-1 -1.023023580940000e-1 -9.780079672319999e-2 -9.349731538870000e-2
-8.938319806970000e-2 -8.545011227280000e-2 -8.169009215519999e-2
</PP_LOCAL>
<PP_NONLOCAL>
<PP_BETA.1 index="1" label="4S" angular_momentum="0" cutoff_radius_index="241" cutoff_radius="0.000000000000e0" ultrasoft_cutoff_radius="0.000000000000e0">
1.424676966630000e-4 1.490251813320000e-4 1.558844912750000e-4 1.630595197380000e-4
1.705648009280000e-4 1.784155342350000e-4 1.866276174550000e-4 1.952176876320000e-4
2.042031377050000e-4 2.136021794630000e-4 2.234338213560000e-4 2.337179982439999e-4
2.444755526620000e-4 2.557282350009999e-4 2.674988517480000e-4 2.798112653490000e-4
2.926903757320000e-4 3.061622871030000e-4 3.202542708120000e-4 3.349948951190000e-4
3.504139879760000e-4 3.665428040420000e-4 3.834139875280000e-4 4.010617014620000e-4
4.195217211239999e-4 4.388314147550000e-4 4.590298737960000e-4 4.801580421530000e-4
5.022586794960000e-4 5.253765832470000e-4 5.495585333720000e-4 5.748535513810000e-4
6.013128263290000e-4 6.289899742389999e-4 6.579410382530000e-4 6.882246551500000e-4
7.199021661170000e-4 7.530377291240001e-4 7.876984471380000e-4 8.239545171120001e-4
8.618793781790000e-4 9.015498411279999e-4 9.430462551410001e-4 9.864526747059998e-4
1.031856988800000e-3 1.079351162410000e-3 1.129031384400000e-3 1.180998288790000e-3
1.235357123520000e-3 1.292217989410000e-3 1.351696026500000e-3 1.413911709450000e-3
1.478991070240000e-3 1.547065883740000e-3 1.618274038200000e-3 1.692759755250000e-3
1.770673890170000e-3 1.852174242850000e-3 1.937425930170000e-3 2.026601478200000e-3
2.119881691630000e-3 2.217455340740000e-3 2.319520084320001e-3 2.426282843240000e-3
2.537959426100000e-3 2.654776384160000e-3 2.776970268340000e-3 2.904788369850000e-3
3.038489645140000e-3 3.178345087340000e-3 3.324637723250000e-3 3.477663725059999e-3
3.637733520240000e-3 3.805170864020000e-3 3.980315060650000e-3 4.163520775489999e-3
4.355159145670001e-3 4.555618333760000e-3 4.765304263860001e-3 4.984641730740000e-3
5.214074951440000e-3 5.454068491610000e-3 5.705108548270000e-3 5.967703695250001e-3
6.242385609949999e-3 6.529710739520000e-3 6.830261025190000e-3 7.144645198799999e-3
7.473500063430000e-3 7.817491960400000e-3 8.177317317480002e-3 8.553705033749999e-3
8.947417577380001e-3 9.359252436460000e-3 9.790043777710000e-3 1.024066425180000e-2
1.071202682820000e-2 1.120508604580000e-2 1.172084074950000e-2 1.226033589870000e-2
1.282466435970000e-2 1.341496925530000e-2 1.403244665520000e-2 1.467834717860000e-2
1.535397996620000e-2 1.606071349250000e-2 1.679997970450000e-2 1.757327666120000e-2
1.838217133420000e-2 1.922830274020000e-2 2.011338564620000e-2 2.103921493480000e-2
2.200766440790000e-2 2.302069979810000e-2 2.408037287680000e-2 2.518883212090000e-2
2.634832597720000e-2 2.756120600890000e-2 2.882993001020000e-2 3.015707240960000e-2
3.154532718480000e-2 3.299750882350000e-2 3.451656612640000e-2 3.610558286010001e-2
3.776778574530000e-2 3.950655033029999e-2 4.132541229040000e-2 4.322806731530000e-2
4.521838749210000e-2 4.730042068570000e-2 4.947840809350001e-2 5.175679044030001e-2
5.414021178950001e-2 5.663353783070000e-2 5.924186800940000e-2 6.197053804510000e-2
6.482514199070000e-2 6.781153895750000e-2 7.093587201489999e-2 7.420458263150000e-2
7.762442604370000e-2 8.120249313440000e-2 8.494622554790000e-2 8.886343920009999e-2
9.296234806910000e-2 9.725159233339999e-2 1.017402612630000e-1 1.064379290920000e-1
1.113546816840000e-1 1.165011646190000e-1 1.218886159650000e-1 1.275289066050000e-1
1.334345984300000e-1 1.396189845070000e-1 1.460961459520000e-1 1.528809997680000e-1
1.599893561310000e-1 1.674379607930000e-1 1.752445351500000e-1 1.834277820830000e-1
1.920074216890000e-1 2.010040848910000e-1 2.104392591750000e-1 2.203350905950000e-1
2.307140942390000e-1 2.415987558590000e-1 2.530108537790000e-1 2.649706452890000e-1
2.774956572650000e-1 2.905991356050000e-1 3.042880764540000e-1 3.185605650390000e-1
3.334025769020000e-1 3.487841534740000e-1 3.646544724940000e-1 3.809364870300000e-1
3.975203198970000e-1 4.142560223440000e-1 4.309454549220000e-1 4.473332158180000e-1
4.630967642230000e-1 4.778356412240000e-1 4.910593694910000e-1 5.021741575949999e-1
5.104679951760000e-1 5.150950910650000e-1 5.150615313440000e-1 5.092169887619999e-1
4.962616650550000e-1 4.747831092250000e-1 4.433438837750000e-1 4.006438579990000e-1
3.457776401520000e-1 2.785899141420000e-1 2.000959099940000e-1 1.128806124070000e-1
2.133168546470000e-2 -6.847321524720000e-2 -1.493736444140000e-1 -2.142499793080000e-1
-2.574720580920000e-1 -2.762612139210000e-1 -2.714595982560000e-1 -2.473428133840000e-1
-2.104780106410000e-1 -1.680443643010000e-1 -1.262510221810000e-1 -8.937278735770001e-2
-5.956302534500000e-2 -3.724217769670000e-2 -2.170749707440000e-2 -1.168915704620000e-2
-5.751353579160000e-3 -2.554159823320000e-3 -1.010706480920000e-3 -3.517120933019999e-4
-1.062021183190000e-4 -2.744899479620000e-5 -5.986964924740001e-6 -1.085638100220000e-6
-1.610796728320000e-7 -1.922322309710000e-8 -1.811264107030000e-9 -1.320557644110000e-10
-7.288458704180001e-12 -2.973479652380000e-13 -8.730543544109999e-15 -1.797863546930001e-16
0.000000000000000e0 0.000000000000000e0 0.000000000000000e0 0.000000000000000e0
0.000000000000000e0 0.000000000000000e0 0.000000000000000e0 0.000000000000000e0
0.000000000000000e0 0.000000000000000e0 0.000000000000000e0 0.000000000000000e0
0.000000000000000e0 0.000000000000000e0 0.000000000000000e0 0.000000000000000e0
0.000000000000000e0 0.000000000000000e0 0.000000000000000e0 0.000000000000000e0
0.000000000000000e0 0.000000000000000e0 0.000000000000000e0 0.000000000000000e0
0.000000000000000e0 0.000000000000000e0 0.000000000000000e0 0.000000000000000e0
0.000000000000000e0 0.000000000000000e0 0.000000000000000e0 0.000000000000000e0
0.000000000000000e0 0.000000000000000e0 0.000000000000000e0 0.000000000000000e0
0.000000000000000e0 0.000000000000000e0 0.000000000000000e0 0.000000000000000e0
0.000000000000000e0 0.000000000000000e0 0.000000000000000e0 0.000000000000000e0
0.000000000000000e0 0.000000000000000e0 0.000000000000000e0 0.000000000000000e0
0.000000000000000e0 0.000000000000000e0 0.000000000000000e0 0.000000000000000e0
0.000000000000000e0 0.000000000000000e0 0.000000000000000e0 0.000000000000000e0
0.000000000000000e0 0.000000000000000e0 0.000000000000000e0 0.000000000000000e0
0.000000000000000e0 0.000000000000000e0 0.000000000000000e0
</PP_BETA.1>
<PP_BETA.2 index="2" label="4P" angular_momentum="1" cutoff_radius_index="241" cutoff_radius="0.000000000000e0" ultrasoft_cutoff_radius="0.000000000000e0">
1.187416522640000e-8 1.299240609180000e-8 1.421595629830000e-8 1.555473379580000e-8
1.701958936310000e-8 1.862239691180000e-8 2.037614738970000e-8 2.229505625030000e-8
2.439467723610000e-8 2.669202788780000e-8 2.920572951930000e-8 3.195615711770000e-8
3.496560460389999e-8 3.825846451349999e-8 4.186142578559999e-8 4.580369407410000e-8
5.011722203410001e-8 5.483697388500000e-8 6.000120357350001e-8 6.565176988570000e-8
7.183447419569998e-8 7.859942980160001e-8 8.600146827540000e-8 9.410058822829999e-8
1.029624330410000e-7 1.126588353670000e-7 1.232683940990000e-7 1.348770857880000e-7
1.475790230710000e-7 1.614771500420000e-7 1.766841181010000e-7 1.933231889110001e-7
2.115292187880000e-7 2.314497872190000e-7 2.532463527860001e-7 2.770955895990000e-7
3.031907866910000e-7 3.317434735090000e-7 3.629850632330001e-7 3.971687849020000e-7
4.345717152670000e-7 4.754969997810000e-7 5.202763625660001e-7 5.692727432550000e-7
6.228832671090000e-7 6.815424593020001e-7 7.457257660740001e-7 8.159533919120001e-7
8.927945425330000e-7 9.768720203490002e-7 1.068867316040000e-6 1.169525889520000e-6
1.279663823240000e-6 1.400173581540000e-6 1.532031953290000e-6 1.676307544590000e-6
1.834169714710000e-6 2.006897961110000e-6 2.195892029370000e-6 2.402683734410000e-6
2.628948871570000e-6 2.876521205420000e-6 3.147407173640000e-6 3.443801859510000e-6
3.768107393510001e-6 4.122951805480001e-6 4.511210584010000e-6 4.936029852190000e-6
5.400852159390000e-6 5.909443887309999e-6 6.465926086920000e-6 7.074807462020001e-6
7.741021502659999e-6 8.469965768109999e-6 9.267546026750001e-6 1.014022336320000e-5
1.109506657230000e-5 1.213981149630000e-5 1.328291958910000e-5 1.453364989450000e-5
1.590213097840000e-5 1.739944544150000e-5 1.903771796310000e-5 2.083021229440000e-5
2.279144168559999e-5 2.493728099500000e-5 2.728509942080000e-5 2.985389666160000e-5
3.266446051190000e-5 3.573952695940000e-5 3.910397330550000e-5 4.278500648840000e-5
4.681239242250000e-5 5.121868845659999e-5 5.603950409629999e-5 6.131379164359998e-5
6.708415219269998e-5 7.339717847050000e-5 8.030382974569999e-5 8.785982961840000e-5
9.612611698170001e-5 1.051693371780000e-4 1.150623441350000e-4 1.258848038930000e-4
1.377238170000000e-4 1.506745860750000e-4 1.648411951180000e-4 1.803374005520000e-4
1.972875227400000e-4 2.158274184880000e-4 2.361055239610000e-4 2.582840103170000e-4
2.825400232290000e-4 3.090670478630000e-4 3.380763327810000e-4 3.697985393460001e-4
4.044854409930000e-4 4.424117916680000e-4 4.838773476600000e-4 5.292090968870001e-4
5.787635508599999e-4 6.329293748590001e-4 6.921300451350000e-4 7.568268852319999e-4
8.275221552340001e-4 9.047624857770000e-4 9.891425377699999e-4 1.081308748890000e-3
1.181963558360000e-3 1.291869555150000e-3 1.411854451560000e-3 1.542815565440000e-3
1.685724987150000e-3 1.841634990610000e-3 2.011683153790000e-3 2.197098582450000e-3
2.399207254440000e-3 2.619437758180000e-3 2.859327705650000e-3 3.120529307750000e-3
3.404814893380000e-3 3.714082922610000e-3 4.050363116190000e-3 4.415821137980000e-3
4.812763500630001e-3 5.243641009760001e-3 5.711052021380000e-3 6.217745189330000e-3
6.766621185990001e-3 7.360733397800000e-3 8.003288930360000e-3 8.697648613300000e-3
9.447325162529998e-3 1.025598794360000e-2 1.112745870100000e-2 1.206571869600000e-2
1.307491186850000e-2 1.415935606760000e-2 1.532355399380000e-2 1.657221277810000e-2
1.791026778710000e-2 1.934290778440000e-2 2.087560591290000e-2 2.251414028700000e-2
2.426460613790000e-2 2.613339559440000e-2 2.812713032830000e-2 3.025251690550000e-2
3.251607912320000e-2 3.492373300820000e-2 3.748013033940000e-2 4.018772520070000e-2
4.304548964830000e-2 4.604725076079999e-2 4.917962337230001e-2 5.241959895370000e-2
5.573192382170000e-2 5.906650536790000e-2 6.235628533310001e-2 6.551600844230000e-2
6.844259048989999e-2 7.101758442880000e-2 7.311217687090000e-2 7.459452582630000e-2