aSi.xyz (written by ASE) 

13824 	 atoms 
1  atom types
0.0      65.495844126999998  xlo xhi
0.0      65.495844126999998  ylo yhi
0.0      65.495844126999998  zlo zhi


Atoms 

     1   1     0.62824209850000001            2.7322672604     0.34653022789999999
     2   1      38.399476356800001            29.249738467           43.0585249381
     3   1      43.921739844199998      28.541822950099998           42.1347018668
     4   1      46.184349796200003      29.218916421599999      42.054424090200001
     5   1      50.465312537800003      29.581522416599999      41.954393447400001
     6   1           52.8219435046           27.5271754593      42.230820901199998
     7   1      59.803454312200003      28.863642591400001      43.121371812400007
     8   1      57.569831560300003      29.683145504900001      43.282314132499998
     9   1      60.173896269300009      27.498259724499999      41.287130159199997
    10   1      64.444552159899999           27.3174690319      43.397755132299999
    11   1      35.807168033700002      31.257590307099999      42.759382486500002
    12   1      37.837217603500001           31.0516635611      41.558542029800002
    13   1      42.161093979199997      30.081789109300001           42.5475224578
    14   1           55.1311590595      31.678672859999999      42.156651810300005
    15   1      57.006845642099996      30.542068139800005      41.071457327399997
    16   1      60.765681171099999      30.933596641899999      42.681412798499998
    17   1           62.9608248308      31.327052520500001      41.941829776299997
    18   1      35.431072074799999   0.0015165700000000001      46.175986604199998
    19   1      34.201504091099999            1.8121401408      45.273581053599997
    20   1           38.7064496275             1.529203732      45.297278822499997
    21   1      42.416501448399998      1.9800995991000001      45.124448990200001
    22   1      44.201427105800001     0.50795702470000004      45.360025841199999
    23   1           47.9327281455      1.4009448795000001      45.543917623500001
    24   1      53.660480874500003     0.24544448969999999           45.4092759093
    25   1      40.510336803900003      28.352810601200002      42.677023205200001
    26   1            53.724438905      2.4732446986999999       46.34714893400001
    27   1      36.799702904000007      27.457976387799999      42.866201115700001
    28   1           34.1734150375      29.696813659300002      42.118956992100003
    29   1      60.398977348000003      21.000917475600005           42.3669433966
    30   1      64.129675855100004      20.578109679200001      41.274366685499999
    31   1           33.9668392791            24.420952559      42.262361669400001
    32   1      35.955800758199999      21.954520382399998      43.604148577399997
    33   1      36.200617352199998      23.683929511799999      41.924502468299998
    34   1      40.607197253899997           23.0369616648      43.559917482000003
    35   1      40.451113855099997      22.533071664200001      41.203703031300002
    36   1      43.654282216600002      24.498972227399999      41.108551276599997
    37   1      46.513806749700002      22.140337612900002      43.062932911499999
    38   1      49.236401227800009      23.058434246899999      40.921779510100002
    39   1           52.5341289956      22.596027007499998      42.114137574499999
    40   1      62.059890756000001      24.509719730600001      41.860326085700002
    41   1      37.801145830099998      25.416283471100002      42.267551877700001
    42   1      44.071326947199999           24.9245738479      43.411962168300001
    43   1      47.933730787000002      25.775665797799999      43.296960578099998
    44   1      47.286446095899997            27.173817215      41.500201842099997
    45   1      50.888340992800003      26.410001711300001      41.413818523700002
    46   1      49.869153200100001      24.629786897199999      42.565588130999998
    47   1      54.220936066900002      25.651417201000001      42.168188544700001
    48   1           56.3656108184      26.521807366400001      42.016884549099998
    49   1      57.839075380300002      24.642816596599999      42.119964983300001
    50   1       60.00559727480001           25.4646647585      42.466001790900002
    51   1      63.460034934399999           26.2946662628      41.540763655500001
    52   1      35.211461181200001      27.821843035099999      41.090889217099999
    53   1      62.672087097899997      21.125681913299999      43.005938742600001
    54   1      55.985848430799997     0.15432378529999999      44.515424838400001
    55   1           60.7751068038      2.2143783789999998      44.623259412099998
    56   1      38.537881983000005      10.032221804400001      44.188155467400001
    57   1           42.3102991429      9.2891978533999993      44.002141408100002
    58   1      46.217074364600002      8.8046382163000008       44.48014741850001
    59   1      48.356762307499999      9.7296718210000019            44.215032416
    60   1      49.924303511600002      8.7556181728000002           45.6939193467
    61   1      52.092911713299998      9.5627933850000009      45.131827658600002
    62   1      56.727507639800002      9.1217181053999994      45.340399811899999
    63   1           59.6554376924      8.5571911860000007            43.842856249
    64   1      61.945052221100006      8.2259371294000001      44.236727037599998
    65   1      62.485814105199999      10.155223917100001      45.435049254799999
    66   1      64.768033123099997           10.3923359598      45.290852026800003
    67   1      38.075852265499996           11.7866278301      45.667034749199999
    68   1      41.214744119999999      12.921127459599999      43.632701238599999
    69   1      41.692503243799997      13.022212338500001      45.902964494199999
    70   1      44.724287838599999      12.235792058199999      43.788101469700003
    71   1      44.007999548100003      12.402559435500001      46.019507826000002
    72   1      48.527407548299998           12.0358366743      44.711495749000001
    73   1      50.704752116900004           12.9212428451      44.580724484699999
    74   1      56.026936297700004      12.856945104799999      44.696656582000003
    75   1      57.675729146199998           11.2057733318           44.9280309054
    76   1      61.531177945000003           11.5765985742      43.870645830000001
    77   1      65.228215507000002           12.6343569838      45.762407043300001
    78   1      33.922837654399999      15.418464613599999      45.889451289299998
    79   1      34.706298060500004      8.4069717310000023      46.026537683999997
    80   1      56.139789397999998            2.3473865563      45.544815118800003
    81   1      34.623081742700002      10.738291654199999           45.5547846073
    82   1      60.200358420999997      5.7917319772999996      46.148844416700001
    83   1      64.407734149700005      1.1008956134000001      43.793746967899999
    84   1      63.076842453200001      2.5711108881000002      45.110869380300002
    85   1      34.671722002700001      3.8409311779999999      46.351232929299996
    86   1      37.995261580899999      3.4771258951999999      44.199491890700003
    87   1      36.709889123799996      4.8325154330000002      45.682368437999997
    88   1      43.171139201700001      4.1766101134999998      45.298073533900002
    89   1      50.911082309900003            3.4220565685           43.7820695204
    90   1      49.654482172599998      3.0237034405999998           45.7861166884
    91   1       53.09158296710001      4.1629192896999996      44.774704145400001
    92   1      57.285806425799997      4.2453047573999996      44.763117992399998
    93   1      59.628601655200001      4.2580160880999998            44.411555262
    94   1      63.402074181800003      4.8887488377999997      44.658164185799997
    95   1      36.411770356399998      7.0844218047999998      44.990989537899999
    96   1      40.226708668800001      6.5865508524000003      44.577444543399999
    97   1      38.537440971700001      8.0093485126000008      45.384200628800002
    98   1      41.540965304499998      5.5503844139999998      46.241831199099998
    99   1      46.574710360300003      6.4705363092999999      43.995101167900003
   100   1      46.493446254600002      5.4929326764999997      46.159054314499997
   101   1      50.662273864600003      5.9073540114999998      43.902069785000002
   102   1           50.1818349889      6.4566122230999996            46.184881638
   103   1      53.447449036600005      7.8683122458000003      44.260076468199998
   104   1      53.372219432900003      6.2302329542999999      45.960126747799997
   105   1      58.725802079799998      7.8038843256000003      45.938762997700003
   106   1      62.328074317899997      6.5955269260999998      45.839568782400001
   107   1      37.729526830399998           13.7096980298      44.341298809900003
   108   1      55.028966127399997      19.592016593200004      41.706835517000002
   109   1      50.754669103600001      21.317647873100004      41.258612518800007
   110   1      57.211724135899999            1.4458851148           41.0074538171
   111   1      59.021842737500002     0.19485782920000003      41.824611023300001
   112   1      61.030561855500004      1.1576623026999999      42.496063757599998
   113   1      33.628162917399997      2.6871702882999999      41.460205037100003
   114   1      39.421129432800001            4.9706827297      43.077484740899997
   115   1      41.412730937900001      3.9660210578999999      42.261139495599998
   116   1      49.406026521999998      4.0093920157999996      41.955294912600003
   117   1      54.210793478399999      4.0556384805999999           42.6959755464
   118   1      56.434904707000001      4.7192498050999996      42.670411534499998
   119   1      60.253278446499998      5.2506164629000001      42.355925759199998
   120   1      62.611053509000001      5.3195104349999998      42.452390926299998
   121   1      63.714621427499999      3.7659434871999999      41.087164584999996
   122   1           34.1652081131      6.7769950102000012      41.799895570399997
   123   1      38.010551062600001      6.1906812697999998      41.579255642600003
   124   1      36.282354603199998      7.4180261312000004      42.656726885399998
   125   1      43.072514803499999      5.3438150559000004           43.2305528479
   126   1      41.746035247800002      7.3271876906999998      42.856106446699997
   127   1           45.1509506923      5.6730912836999998           42.2834343631
   128   1      48.561246202600003            6.0907145125      42.780556236499997
   129   1      52.273225719199999      6.9784051650999999      42.477786500400001
   130   1      53.530526877100002      5.5618011168999999      41.051125003200006
   131   1      56.589717606900003      6.9708170427000011      42.036649631000003
   132   1      58.923830556399999      7.2337305351000012      42.106878573099998
   133   1      55.370405026699999     0.52416461609999998      42.209776133699997
   134   1      63.030747327299999      7.6107573520000003      42.235582671499998
   135   1      53.697205895499998      2.0210726031999999      41.698697360099999
   136   1      47.716281388399999      2.4257457010999999      41.637947525000001
   137   1      62.274241625400002      27.869849273500002      40.336064535700004
   138   1      63.948451779700001      29.553957751199999      40.673986618500003
   139   1      65.102096294000006      29.423707542100004      38.524901106900003
   140   1           33.6639505781           32.2917061717      39.428231977999999
   141   1           37.9500459295            30.196873295      39.403424345600001
   142   1      42.299105794200003      31.346514833699999           40.5573657431
   143   1           44.4050446193      32.329710016299998      40.197587874699998
   144   1      46.317904615700002      30.943990599399999      40.394966843299997
   145   1      47.957838598099997      32.643581905399998      40.876268924900003
   146   1      50.003802942699998      31.567113070400001      40.808905748500003
   147   1      50.239477069899998      30.949322253799998      38.557929796899998
   148   1      53.444842403599999      31.551110554000005      40.564956778999999
   149   1      54.478933089000009      32.483812133900003      38.623514564899999
   150   1      56.560942593500002      31.415093719000005      38.769218120700003
   151   1      59.303167525799999      31.552467911699999      40.967830935499997
   152   1      60.158134728500009           31.1890589978      38.745406979400002
   153   1      62.279237388299997      32.140806761100002      38.163435433799997
   154   1            34.948176732      1.6740594365000001      43.098523455500001
   155   1      36.924697641500003      2.6434842018000002      42.319514380800001
   156   1      43.703973242499998     0.88064115799999998      41.614126479200003
   157   1      41.925567154600003            1.7634800168           42.8805319955
   158   1      45.188516620800002    0.099314949200000002      43.259865168499999
   159   1      47.431996666499998     0.77203777709999999      43.287972179400001
   160   1           51.5587279115      1.3364374702999999      42.447606703799998
   161   1      54.188532833499998      21.269278183699999      43.097888025400003
   162   1      33.063594418299999           10.6005740628      42.093503986400002
   163   1           40.5640122792            10.708263463      43.182967155100002
   164   1      53.032067660300001           14.1741492339      42.455755495399998
   165   1      58.788480854900001           14.4476858558      42.289754712499999
   166   1      60.922160952900001           15.0935463837      43.014898846800001
   167   1           62.4720700556           15.1119562444      41.214345448400003
   168   1      35.048111584700003      17.487536073699999      43.372197267700002
   169   1      35.499161152500001           17.7480874285      41.106354447599998
   170   1      37.850165169699999      17.392170675100001      41.021092718699997
   171   1      39.516653816000002      16.439755007599999      42.441662861499999
   172   1      41.716225684800001           16.9464891509      41.765542266300002
   173   1      44.837645484799999      18.315710870699998      42.506529564600001
   174   1           51.7204807257      18.527145526599998      43.638918184200001
   175   1      49.589973872100003      17.708120512299999      41.125020939400002
   176   1           53.2557585936      17.966485705499998      41.897221764299999
   177   1           56.7521689155           18.5397876822      42.944473303400002
   178   1      58.216181700200003      18.127221989999999      41.154781421599999
   179   1      60.329219944899997      18.715303927699999      41.851052211599999
   180   1      64.378494073599995      16.625631292000001      42.343911754799997
   181   1           34.0864220773      20.927927672300001           42.6447702882
   182   1      37.688291022500003      20.448958124699999      43.454087143300001
   183   1      38.070503983000009      19.723711400700001      41.282190202000002
   184   1           41.6434411157            19.230409149      42.103790977300001
   185   1      43.673176934600001      20.342171803199999      41.846638453300002
   186   1      49.869809523700006           19.5659134663      42.544695996400002
   187   1      54.431401079099999      15.963603922600001      42.143529387299999
   188   1      36.850031353400006      9.7007267874000007      42.557185757100008
   189   1            49.286258165           15.5544586189      42.017322601000004
   190   1      47.336823225700002           15.3202344114      43.279048736900002
   191   1           44.4981350718      9.9288791813999993      43.267893145400009
   192   1      48.696852293300005      9.5790959497999992      41.898438616999996
   193   1      50.758193425499996      10.654009974999999      41.598113547300002
   194   1      51.836010717299999      8.6924656161999998           40.9150484289
   195   1      55.533688508499999      8.5660475844999997      43.401683180799999
   196   1      55.210602299100003      10.466944938299999      42.021075471000003
   197   1      59.367409355299998           10.8783099699      43.350328988100003
   198   1      61.802107508500001            9.1680701274      40.866361456900002
   199   1      35.075606007399998           11.0918205355      43.278381955500002
   200   1      35.880955368999999      13.334101825799999      42.891317143000002
   201   1      43.202975422500003           13.6123562992      42.621401648999999
   202   1           46.9077312593      13.006519104100001      43.384775421199997
   203   1      47.115860678700002      12.668753001600001      41.073586689999999
   204   1      51.983822559099998      11.280525645599999      43.567993844999997
   205   1           54.1877623751           12.2298546953      43.282737299600008
   206   1      58.907705149599998           12.2464535687      41.464979193300003
   207   1      62.594180872800003            11.259843413      41.789975207099999
   208   1            64.951988043           11.2062618683      41.828826733699998
   209   1      34.524476709399998      15.163525761400003           43.5897310549
   210   1      32.891566085699999      14.505247951899999           41.9683304928
   211   1            39.437289991           14.1589389165      42.760030807900002
   212   1      43.572800911500003      16.055572831799999      42.977367818099999
   213   1      45.604896834900003      15.530806243700001      41.718581335899998
   214   1      51.006294426300002      14.942078079200002      43.459396035099999
   215   1      58.766129393900002      27.538837512299999      39.433432005999997
   216   1      57.284052450300003      14.748741512200001      44.058374680299998
   217   1      61.480996531899997           13.6733181736      44.800652136900005
   218   1      57.121025199999998      12.087992530499999      48.330223107400002
   219   1      58.867685804700002      11.649397667100001      46.883210294900003
   220   1      63.274324358999998      13.231408694100001      48.612070236199997
   221   1      33.463186450199998      13.819214860700001      47.560901960099997
   222   1      37.786386954299999      15.033442903899999      46.408003123900002
   223   1      35.866300427600002      16.352512860699999      47.009218269400002
   224   1      38.734917188300003            13.844771131      48.303606628399997
   225   1      41.736228221399998            15.238454831      46.489876330599998
   226   1      42.243248764100002      14.999049057800002      48.762485341900003
   227   1      45.502670716700003            15.900677725           46.4954649457
   228   1      51.770155426300001      13.677486507299999      46.553612393000009
   229   1      49.745058405899997      15.805916631100002      48.462332825099999
   230   1      52.592033259099999      15.926582508999999      46.577014230300001
   231   1      56.309001058500002           15.6183752984      47.320182547599998
   232   1      59.884660839299997      13.785562028999999      46.517003926599997
   233   1      61.186392789599999           14.5010969666           48.3249351905
   234   1      36.324929319100001      18.623637032400001      46.558002769600002
   235   1      39.865601972199997      17.972643866799999      48.130167675800003
   236   1      42.126442753600003           18.5766110615      47.970939264599998
   237   1      45.617713925700002      16.935214471399998      48.618640384700001
   238   1           49.1721236701      17.090500824799999            46.472301414
   239   1      52.002830030800006      16.424021076399999      48.853689506899997
   240   1      60.571075514900002            18.424301212            47.220743786
   241   1       55.64618385970001           13.3268877819      47.001079824500003
   242   1      61.957474146100004      16.676252298800001      47.863978554699997
   243   1      53.542617602599996      12.523455783699999           47.5427780996
   244   1      47.947217745000003      12.553528289000001      46.890905764800003
   245   1      55.210965950099997      6.8113496333999999      47.272279259900003
   246   1      57.219493657400001      5.9237400645999996      46.446257064699999
   247   1           63.2178782521      7.8369998839999999      47.638274649499998
   248   1      34.771260928399997      8.3379227084000025      48.427336792600002
   249   1      36.777605223099997      9.6583014303999999      48.589216123200003
   250   1      40.416440862499996      9.8044535725999999      47.827778439600003
   251   1      38.548420921800009      8.4270762932000025      47.691909604599999
   252   1      42.173910344100008      8.9683694750000011      46.434604119399999
   253   1      45.817210166199999      9.2354241448999996      46.761819338199999
   254   1      43.846094658699997      10.400636352099999      47.165241637000001
   255   1      47.488192282599996      10.456736595900001      47.846383701699999
   256   1      49.380803375799999      9.1044153172000009      47.971207460400002
   257   1      51.437833036599997      9.9904334539999997      48.700373444299998
   258   1      53.181762882900003      10.243062760200001      47.090125239899997
   259   1      55.275719100899998      9.1463339148999996      47.219633133999999
   260   1      56.499316380400003      9.9678947745999995            49.025499732
   261   1      59.560871890900003      9.4173975366999993      47.571154876100003
   262   1      61.875140199000001      9.7834266183000018      47.763564648500001
   263   1      65.217263126399999      8.9083768797000005      47.014470171500001
   264   1      35.273614209800002      12.857989250299999           48.7116069876
   265   1      36.261348638000008           11.4059254288           47.1176183452
   266   1      39.908198225100001           12.0385921178      47.130300180600003
   267   1      45.799708051099998           13.6327864147           46.9849327672
   268   1      49.861130869999997           13.4940198781           47.9621231283
   269   1      51.896362429500002      6.5976163755000004      47.867231259199997
   270   1      65.413817066799993      17.030692869300001           47.5194709839
   271   1      38.197105137800001      19.537675371199999      47.683039663099997
   272   1      38.802713564500003      26.157388894499999      47.757131368800003
   273   1           40.8940648341      26.838171107600001      46.881213259799999
   274   1      42.631780541399998      25.600288612300002      47.906111325600008
   275   1           44.4641013488           27.0870529261      47.885675530999997
   276   1           46.5714574056      26.018622670700001      47.765635186300003
   277   1      54.565031340200001      25.148579787500001      48.635856489200002
   278   1           52.9990732459      27.143185329600001      48.578377906100002
   279   1      59.316744292599999      25.212633727899998           48.2916953135
   280   1      62.618291403999997      25.353711257100002      47.280866807400002
   281   1      60.943183648200005      26.903192324100001      48.118034131899996
   282   1      64.309315818100004      26.940479142499999      46.854098319999999
   283   1      35.542679398499999      27.746149260399999      46.651163336000003
   284   1      32.838115013399999      30.034783754799999      47.400713757299997
   285   1      37.437048330300001           28.0275507327           47.8772418378
   286   1      40.850898939799997           29.0666598157           47.6654192341
   287   1      38.679514778399998      29.830510565600001      47.189172951000003
   288   1      47.905101558600002      27.632259036400001      46.807633596400009
   289   1      51.071592308100008      29.366397199800002      46.568630802500003
   290   1      49.610405943700002           28.4023760555      48.238647314200001
   291   1      57.412594679900003      28.730778725499999      47.322085291999997
   292   1      59.818165395699999      28.685813647100002      47.005348490099998
   293   1      64.379862301100005      28.519336836299999      48.587479964300002
   294   1      37.547258167199999           31.6638245611       48.20954698500001
   295   1      33.966334481399997      26.883414498600001      48.180838954000002
   296   1      34.612943123900003      20.200097535200001           46.9961915031
   297   1      33.607985070300003      24.613556554999999      48.198272560600003
   298   1      60.084186976399998      22.897871905999999      48.148730947200001
   299   1      39.180069701299999           21.5070282147      46.829491387200001
   300   1      42.929541194000002      20.626768606199999      48.730516757499998
   301   1      45.009826123899998      20.576221955600001           47.5617613131
   302   1      48.730970738899998           19.2600895675      47.360292563900003
   303   1      46.606270502400001      19.111251937599999           48.4557963922
   304   1      50.409496251299998      20.230173044400004      48.712643043900009
   305   1      53.654952055499997      21.793526114199999      48.080063324199998
   306   1           53.9444950504      19.522470129599999      48.576020811399999
   307   1      56.502496445299997      20.105998413999998      46.473532770200002
   308   1           57.4582906296           20.1708573284      48.615487338599998
   309   1           61.9950029022      20.190865760600001      46.587741018700001
   310   1      63.365011523500009      20.066623409999998      48.600255801199999
   311   1      64.865682393100002      30.157079452400001           65.1304843968
   312   1      37.431465444200001      23.094348290500001      46.948409764399997
   313   1      37.214777954800006      23.706412074199999      49.219143838000001
   314   1      42.871715651800002      23.459124089700001      46.962789046600001
   315   1           41.1729073423           22.0721798963           48.0280296834
   316   1      45.107289138200002           22.8938513449      47.779915787599997
   317   1           48.5266215268      23.024478656800003      46.608804662899999
   318   1      51.433784958700002      22.015832707700003      47.504406422899997
   319   1      50.372683862999999      24.164623419800005      47.432010565799999
   320   1           55.4314344326      22.196669309699999      46.597947633899999
   321   1      56.583769974299997           23.8754299868           47.7344834847
   322   1      57.977746204399999      22.422167902300004      49.054399701900003
   323   1      58.342371838200002           15.5564611825      46.007686413800002
   324   1      45.393139593100003      7.0833555631999996      47.524942244899997
   325   1      32.944109404999999      5.4544079699000001      46.522112153099997
   326   1      63.365741047100002      19.735330295200001           44.7377964545
   327   1      35.502852551399997           22.1958436924      45.944565884100001
   328   1      33.710810585399997      23.685087521700002      46.051265540999999
   329   1      42.812307934800003      23.244247371699998      44.535463507599999
   330   1      46.273114275600001      24.317381998399998      44.053791009000001
   331   1      46.526112291099999      24.110343164100001      46.379612286300002
   332   1      51.602885470300009           23.8141292253      44.086007483899998
   333   1           55.3669818515           22.8353078395      44.376408071999997
   334   1      57.633322978899997      23.454419344000002      44.167003101200002
   335   1      60.655134561099999           22.0629930387      46.040624932299998
   336   1      61.793613945200001      24.056420921600001      45.476146931999999
   337   1      65.354662844100005      23.482011606299999      43.726813061800001
   338   1      63.040192209200001           23.3282765477      43.617582617300002
   339   1      33.986270021400003      25.378727360599999           44.4273913882
   340   1      37.907585438399998      25.082483738800004      45.812679453299999
   341   1      36.086808779000002      26.357561038299998      44.878668400800002
   342   1       39.43632611000001           25.0264235701           43.9790608355
   343   1      41.019346900199999      26.795972901700001      44.442954009600001
   344   1           43.3913673801           27.0898017548      43.975303317200002
   345   1      49.145752421799997      26.964570593000001      44.928750915599998
   346   1      50.987566035299999      25.650786470100002      45.655083017199999
   347   1      53.912776173899999      24.651779925300001      44.308543942999997
   348   1           54.4807482931      25.938513020799999      46.266889257400003
   349   1           57.9319223436      19.521952542400001      44.744802408699996
   350   1      56.606075354300003           26.9670458983      45.946085444799998
   351   1      59.099781403000001      21.555048424500004      44.293639945599999
   352   1      54.408714195899996           19.0264894753      46.323630014099997
   353   1      63.359298947500001      13.977069974500001      46.183396527799999
   354   1      63.610706703699996            16.298363149      46.238577621799998
   355   1      37.006810291500003           18.4081641432      44.377042573899999
   356   1      39.230445899499998      17.571617680399999           44.4315886435
   357   1      39.694800345099999      16.398456896500001      46.378910891899999
   358   1      43.457899531700001      16.349564619199999           45.3512385792
   359   1      42.705185073499997      18.559564993199999      45.694130483300007