266

1
        0.000000000000000        0.000000000000000        0.000000000000000
        0.000000000000000        0.000000000000000        0.000000000000000
     1     1     1
   1   1   1        0.000000000000002
   1   1   2        0.000000000000000
   1   1   3        0.000000000000003
   1   2   1       -0.000000000000001
   1   2   2        0.000000000000002
   1   2   3       34.065931542723050
   1   3   1       -0.000000000000002
   1   3   2       34.065931542723050
   1   3   3       -0.000000000000004
   2   1   1        0.000000000000000
   2   1   2        0.000000000000002
   2   1   3       34.065931542723050
   2   2   1        0.000000000000002
   2   2   2       -0.000000000000001
   2   2   3        0.000000000000003
   2   3   1       34.065931542723050
   2   3   2       -0.000000000000002
   2   3   3        0.000000000000001
   3   1   1       -0.000000000000003
   3   1   2       34.065931542723050
   3   1   3       -0.000000000000004
   3   2   1       34.065931542723050
   3   2   2       -0.000000000000002
   3   2   3        0.000000000000001
   3   3   1        0.000000000000001
   3   3   2       -0.000000000000004
   3   3   3        0.000000000000004

2
        0.000000000000000        0.000000000000000        0.000000000000000
        0.000000000000000        0.000000000000000        0.000000000000000
     1     1     2
   1   1   1       -7.665027038102809
   1   1   2       -6.940835230280001
   1   1   3       -6.940835230280008
   1   2   1       -7.446203630630523
   1   2   2       -7.446203630630529
   1   2   3       -8.362128099933901
   1   3   1       -7.446203630630524
   1   3   2       -8.362128099933898
   1   3   3       -7.446203630630523
   2   1   1       -7.446203630630524
   2   1   2       -7.446203630630525
   2   1   3       -8.362128099933901
   2   2   1       -6.940835230280009
   2   2   2       -7.665027038102801
   2   2   3       -6.940835230280008
   2   3   1       -8.362128099933901
   2   3   2       -7.446203630630528
   2   3   3       -7.446203630630524
   3   1   1       -7.446203630630523
   3   1   2       -8.362128099933905
   3   1   3       -7.446203630630520
   3   2   1       -8.362128099933905
   3   2   2       -7.446203630630519
   3   2   3       -7.446203630630526
   3   3   1       -6.940835230280007
   3   3   2       -6.940835230280006
   3   3   3       -7.665027038102810

3
        0.000000000000000        0.000000000000000        0.000000000000000
        0.000000000000000        2.716000000000000        2.716000000000000
     1     1     1
   1   1   1        0.473059598126706
   1   1   2        0.136664203416756
   1   1   3        0.136664203416756
   1   2   1       -0.116011692599787
   1   2   2        0.006861284309808
   1   2   3        0.074844494568956
   1   3   1       -0.116011692599787
   1   3   2        0.074844494568956
   1   3   3        0.006861284309808
   2   1   1       -0.116011692599787
   2   1   2        0.006861284309808
   2   1   3        0.074844494568956
   2   2   1       -0.147819173593715
   2   2   2       -0.028432958078414
   2   2   3       -0.308471594703098
   2   3   1       -0.304043774884755
   2   3   2       -0.222518867222103
   2   3   3       -0.222518867222103
   3   1   1       -0.116011692599786
   3   1   2        0.074844494568956
   3   1   3        0.006861284309808
   3   2   1       -0.304043774884755
   3   2   2       -0.222518867222103
   3   2   3       -0.222518867222103
   3   3   1       -0.147819173593715
   3   3   2       -0.308471594703098
   3   3   3       -0.028432958078414

4
        0.000000000000000        0.000000000000000        0.000000000000000
        0.000000000000000       -2.716000000000000       -2.716000000000000
     1     1     1
   1   1   1        0.473059598126706
   1   1   2       -0.136664203416756
   1   1   3       -0.136664203416756
   1   2   1        0.116011692599787
   1   2   2        0.006861284309808
   1   2   3        0.074844494568956
   1   3   1        0.116011692599787
   1   3   2        0.074844494568956
   1   3   3        0.006861284309808
   2   1   1        0.116011692599787
   2   1   2        0.006861284309808
   2   1   3        0.074844494568956
   2   2   1       -0.147819173593715
   2   2   2        0.028432958078414
   2   2   3        0.308471594703098
   2   3   1       -0.304043774884755
   2   3   2        0.222518867222103
   2   3   3        0.222518867222103
   3   1   1        0.116011692599786
   3   1   2        0.074844494568956
   3   1   3        0.006861284309808
   3   2   1       -0.304043774884755
   3   2   2        0.222518867222103
   3   2   3        0.222518867222103
   3   3   1       -0.147819173593715
   3   3   2        0.308471594703098
   3   3   3        0.028432958078414

5
        0.000000000000000        0.000000000000000        0.000000000000000
        0.000000000000000       -2.716000000000000       -2.716000000000000
     1     1     2
   1   1   1       -7.665027038102809
   1   1   2        6.940835230280001
   1   1   3        6.940835230280008
   1   2   1        7.446203630630523
   1   2   2       -7.446203630630529
   1   2   3       -8.362128099933901
   1   3   1        7.446203630630524
   1   3   2       -8.362128099933898
   1   3   3       -7.446203630630523
   2   1   1        7.446203630630524
   2   1   2       -7.446203630630525
   2   1   3       -8.362128099933901
   2   2   1       -6.940835230280009
   2   2   2        7.665027038102801
   2   2   3        6.940835230280008
   2   3   1       -8.362128099933901
   2   3   2        7.446203630630528
   2   3   3        7.446203630630524
   3   1   1        7.446203630630523
   3   1   2       -8.362128099933905
   3   1   3       -7.446203630630520
   3   2   1       -8.362128099933905
   3   2   2        7.446203630630519
   3   2   3        7.446203630630526
   3   3   1       -6.940835230280007
   3   3   2        6.940835230280006
   3   3   3        7.665027038102810

6
        0.000000000000000        0.000000000000000        0.000000000000000
        2.716000000000000        0.000000000000000        2.716000000000000
     1     1     1
   1   1   1       -0.028432958078414
   1   1   2       -0.147819173593715
   1   1   3       -0.308471594703098
   1   2   1        0.006861284309808
   1   2   2       -0.116011692599786
   1   2   3        0.074844494568956
   1   3   1       -0.222518867222103
   1   3   2       -0.304043774884755
   1   3   3       -0.222518867222103
   2   1   1        0.006861284309808
   2   1   2       -0.116011692599787
   2   1   3        0.074844494568956
   2   2   1        0.136664203416756
   2   2   2        0.473059598126706
   2   2   3        0.136664203416756
   2   3   1        0.074844494568956
   2   3   2       -0.116011692599787
   2   3   3        0.006861284309808
   3   1   1       -0.222518867222103
   3   1   2       -0.304043774884755
   3   1   3       -0.222518867222103
   3   2   1        0.074844494568956
   3   2   2       -0.116011692599787
   3   2   3        0.006861284309808
   3   3   1       -0.308471594703098
   3   3   2       -0.147819173593715
   3   3   3       -0.028432958078414

7
        0.000000000000000        0.000000000000000        0.000000000000000
        2.716000000000000       -2.716000000000000        0.000000000000000
     1     1     1
   1   1   1       -0.028432958078414
   1   1   2        0.308471594703098
   1   1   3        0.147819173593715
   1   2   1        0.222518867222103
   1   2   2       -0.222518867222103
   1   2   3       -0.304043774884755
   1   3   1       -0.006861284309808
   1   3   2        0.074844494568956
   1   3   3       -0.116011692599787
   2   1   1        0.222518867222103
   2   1   2       -0.222518867222103
   2   1   3       -0.304043774884755
   2   2   1       -0.308471594703098
   2   2   2        0.028432958078414
   2   2   3        0.147819173593715
   2   3   1        0.074844494568956
   2   3   2       -0.006861284309808
   2   3   3        0.116011692599786
   3   1   1       -0.006861284309808
   3   1   2        0.074844494568956
   3   1   3       -0.116011692599787
   3   2   1        0.074844494568956
   3   2   2       -0.006861284309808
   3   2   3        0.116011692599787
   3   3   1        0.136664203416756
   3   3   2       -0.136664203416756
   3   3   3       -0.473059598126706

8
        0.000000000000000        0.000000000000000        0.000000000000000
       -2.716000000000000        0.000000000000000       -2.716000000000000
     1     1     1
   1   1   1        0.028432958078414
   1   1   2       -0.147819173593715
   1   1   3        0.308471594703098
   1   2   1        0.006861284309808
   1   2   2        0.116011692599786
   1   2   3        0.074844494568956
   1   3   1        0.222518867222103
   1   3   2       -0.304043774884755
   1   3   3        0.222518867222103
   2   1   1        0.006861284309808
   2   1   2        0.116011692599787
   2   1   3        0.074844494568956
   2   2   1       -0.136664203416756
   2   2   2        0.473059598126706
   2   2   3       -0.136664203416756
   2   3   1        0.074844494568956
   2   3   2        0.116011692599787
   2   3   3        0.006861284309808
   3   1   1        0.222518867222103
   3   1   2       -0.304043774884755
   3   1   3        0.222518867222103
   3   2   1        0.074844494568956
   3   2   2        0.116011692599787
   3   2   3        0.006861284309808
   3   3   1        0.308471594703098
   3   3   2       -0.147819173593715
   3   3   3        0.028432958078414

9
        0.000000000000000        0.000000000000000        0.000000000000000
       -2.716000000000000        0.000000000000000       -2.716000000000000
     1     1     2
   1   1   1        7.665027038102809
   1   1   2       -6.940835230280001
   1   1   3        6.940835230280008
   1   2   1       -7.446203630630523
   1   2   2        7.446203630630529
   1   2   3       -8.362128099933901
   1   3   1        7.446203630630524
   1   3   2       -8.362128099933898
   1   3   3        7.446203630630523
   2   1   1       -7.446203630630524
   2   1   2        7.446203630630525
   2   1   3       -8.362128099933901
   2   2   1        6.940835230280009
   2   2   2       -7.665027038102801
   2   2   3        6.940835230280008
   2   3   1       -8.362128099933901
   2   3   2        7.446203630630528
   2   3   3       -7.446203630630524
   3   1   1        7.446203630630523
   3   1   2       -8.362128099933905
   3   1   3        7.446203630630520
   3   2   1       -8.362128099933905
   3   2   2        7.446203630630519
   3   2   3       -7.446203630630526
   3   3   1        6.940835230280007
   3   3   2       -6.940835230280006
   3   3   3        7.665027038102810

10
        0.000000000000000        0.000000000000000        0.000000000000000
       -2.716000000000000        2.716000000000000        0.000000000000000
     1     1     1
   1   1   1        0.028432958078414
   1   1   2       -0.308471594703098
   1   1   3        0.147819173593715
   1   2   1       -0.222518867222103
   1   2   2        0.222518867222103
   1   2   3       -0.304043774884755
   1   3   1       -0.006861284309808
   1   3   2        0.074844494568956
   1   3   3        0.116011692599787
   2   1   1       -0.222518867222103
   2   1   2        0.222518867222103
   2   1   3       -0.304043774884755
   2   2   1        0.308471594703098
   2   2   2       -0.028432958078414
   2   2   3        0.147819173593715
   2   3   1        0.074844494568956
   2   3   2       -0.006861284309808
   2   3   3       -0.116011692599786
   3   1   1       -0.006861284309808
   3   1   2        0.074844494568956
   3   1   3        0.116011692599787
   3   2   1        0.074844494568956
   3   2   2       -0.006861284309808
   3   2   3       -0.116011692599787
   3   3   1       -0.136664203416756
   3   3   2        0.136664203416756
   3   3   3       -0.473059598126706

11
        0.000000000000000        0.000000000000000        0.000000000000000
        2.716000000000000        2.716000000000000        0.000000000000000
     1     1     1
   1   1   1       -0.028432958078414
   1   1   2       -0.308471594703098
   1   1   3       -0.147819173593715
   1   2   1       -0.222518867222103
   1   2   2       -0.222518867222103
   1   2   3       -0.304043774884755
   1   3   1        0.006861284309808
   1   3   2        0.074844494568956
   1   3   3       -0.116011692599787
   2   1   1       -0.222518867222103
   2   1   2       -0.222518867222103
   2   1   3       -0.304043774884755
   2   2   1       -0.308471594703098
   2   2   2       -0.028432958078414
   2   2   3       -0.147819173593715
   2   3   1        0.074844494568956
   2   3   2        0.006861284309808
   2   3   3       -0.116011692599786
   3   1   1        0.006861284309808
   3   1   2        0.074844494568956
   3   1   3       -0.116011692599787
   3   2   1        0.074844494568956
   3   2   2        0.006861284309808
   3   2   3       -0.116011692599787
   3   3   1        0.136664203416756
   3   3   2        0.136664203416756
   3   3   3        0.473059598126706

12
        0.000000000000000        0.000000000000000        0.000000000000000
        2.716000000000000        0.000000000000000       -2.716000000000000
     1     1     1
   1   1   1       -0.028432958078414
   1   1   2        0.147819173593715
   1   1   3        0.308471594703098
   1   2   1       -0.006861284309808
   1   2   2       -0.116011692599786
   1   2   3        0.074844494568956
   1   3   1        0.222518867222103
   1   3   2       -0.304043774884755
   1   3   3       -0.222518867222103
   2   1   1       -0.006861284309808
   2   1   2       -0.116011692599787
   2   1   3        0.074844494568956
   2   2   1        0.136664203416756
   2   2   2       -0.473059598126706
   2   2   3       -0.136664203416756
   2   3   1        0.074844494568956
   2   3   2        0.116011692599787
   2   3   3       -0.006861284309808
   3   1   1        0.222518867222103
   3   1   2       -0.304043774884755
   3   1   3       -0.222518867222103
   3   2   1        0.074844494568956
   3   2   2        0.116011692599787
   3   2   3       -0.006861284309808
   3   3   1       -0.308471594703098
   3   3   2        0.147819173593715
   3   3   3        0.028432958078414

13
        0.000000000000000        0.000000000000000        0.000000000000000
        0.000000000000000        2.716000000000000       -2.716000000000000
     1     1     1
   1   1   1       -0.473059598126706
   1   1   2        0.136664203416756
   1   1   3       -0.136664203416756
   1   2   1       -0.116011692599787
   1   2   2       -0.006861284309808
   1   2   3        0.074844494568956
   1   3   1        0.116011692599787
   1   3   2        0.074844494568956
   1   3   3       -0.006861284309808
   2   1   1       -0.116011692599787
   2   1   2       -0.006861284309808
   2   1   3        0.074844494568956
   2   2   1        0.147819173593715
   2   2   2       -0.028432958078414
   2   2   3        0.308471594703098
   2   3   1       -0.304043774884755
   2   3   2        0.222518867222103
   2   3   3       -0.222518867222103
   3   1   1        0.116011692599786
   3   1   2        0.074844494568956
   3   1   3       -0.006861284309808
   3   2   1       -0.304043774884755
   3   2   2        0.222518867222103
   3   2   3       -0.222518867222103
   3   3   1        0.147819173593715
   3   3   2       -0.308471594703098
   3   3   3        0.028432958078414

14
        0.000000000000000        0.000000000000000        0.000000000000000
       -2.716000000000000       -2.716000000000000        0.000000000000000
     1     1     1
   1   1   1        0.028432958078414
   1   1   2        0.308471594703098
   1   1   3       -0.147819173593715
   1   2   1        0.222518867222103
   1   2   2        0.222518867222103
   1   2   3       -0.304043774884755
   1   3   1        0.006861284309808
   1   3   2        0.074844494568956
   1   3   3        0.116011692599787
   2   1   1        0.222518867222103
   2   1   2        0.222518867222103
   2   1   3       -0.304043774884755
   2   2   1        0.308471594703098
   2   2   2        0.028432958078414
   2   2   3       -0.147819173593715
   2   3   1        0.074844494568956
   2   3   2        0.006861284309808
   2   3   3        0.116011692599786
   3   1   1        0.006861284309808
   3   1   2        0.074844494568956
   3   1   3        0.116011692599787
   3   2   1        0.074844494568956
   3   2   2        0.006861284309808
   3   2   3        0.116011692599787
   3   3   1       -0.136664203416756
   3   3   2       -0.136664203416756
   3   3   3        0.473059598126706

15
        0.000000000000000        0.000000000000000        0.000000000000000
       -2.716000000000000       -2.716000000000000        0.000000000000000
     1     1     2
   1   1   1        7.665027038102809
   1   1   2        6.940835230280001
   1   1   3       -6.940835230280008
   1   2   1        7.446203630630523
   1   2   2        7.446203630630529
   1   2   3       -8.362128099933901
   1   3   1       -7.446203630630524
   1   3   2       -8.362128099933898
   1   3   3        7.446203630630523
   2   1   1        7.446203630630524
   2   1   2        7.446203630630525
   2   1   3       -8.362128099933901
   2   2   1        6.940835230280009
   2   2   2        7.665027038102801
   2   2   3       -6.940835230280008
   2   3   1       -8.362128099933901
   2   3   2       -7.446203630630528
   2   3   3        7.446203630630524
   3   1   1       -7.446203630630523
   3   1   2       -8.362128099933905
   3   1   3        7.446203630630520
   3   2   1       -8.362128099933905
   3   2   2       -7.446203630630519
   3   2   3        7.446203630630526
   3   3   1        6.940835230280007
   3   3   2        6.940835230280006
   3   3   3       -7.665027038102810

16
        0.000000000000000        0.000000000000000        0.000000000000000
       -2.716000000000000        0.000000000000000        2.716000000000000
     1     1     1
   1   1   1        0.028432958078414
   1   1   2        0.147819173593715
   1   1   3       -0.308471594703098
   1   2   1       -0.006861284309808
   1   2   2        0.116011692599786
   1   2   3        0.074844494568956
   1   3   1       -0.222518867222103
   1   3   2       -0.304043774884755
   1   3   3        0.222518867222103
   2   1   1       -0.006861284309808
   2   1   2        0.116011692599787
   2   1   3        0.074844494568956
   2   2   1       -0.136664203416756
   2   2   2       -0.473059598126706
   2   2   3        0.136664203416756
   2   3   1        0.074844494568956
   2   3   2       -0.116011692599787
   2   3   3       -0.006861284309808
   3   1   1       -0.222518867222103
   3   1   2       -0.304043774884755
   3   1   3        0.222518867222103
   3   2   1        0.074844494568956
   3   2   2       -0.116011692599787
   3   2   3       -0.006861284309808
   3   3   1        0.308471594703098
   3   3   2        0.147819173593715
   3   3   3       -0.028432958078414

17
        0.000000000000000        0.000000000000000        0.000000000000000
        0.000000000000000       -2.716000000000000        2.716000000000000
     1     1     1
   1   1   1       -0.473059598126706
   1   1   2       -0.136664203416756
   1   1   3        0.136664203416756
   1   2   1        0.116011692599787
   1   2   2       -0.006861284309808
   1   2   3        0.074844494568956
   1   3   1       -0.116011692599787
   1   3   2        0.074844494568956
   1   3   3       -0.006861284309808
   2   1   1        0.116011692599787
   2   1   2       -0.006861284309808
   2   1   3        0.074844494568956
   2   2   1        0.147819173593715
   2   2   2        0.028432958078414
   2   2   3       -0.308471594703098
   2   3   1       -0.304043774884755
   2   3   2       -0.222518867222103
   2   3   3        0.222518867222103
   3   1   1       -0.116011692599786
   3   1   2        0.074844494568956
   3   1   3       -0.006861284309808
   3   2   1       -0.304043774884755
   3   2   2       -0.222518867222103
   3   2   3        0.222518867222103
   3   3   1        0.147819173593715
   3   3   2        0.308471594703098
   3   3   3       -0.028432958078414

18
        0.000000000000000        0.000000000000000        0.000000000000000
        0.000000000000000        0.000000000000000        0.000000000000000
     1     2     1
   1   1   1       -7.665027038102809
   1   1   2       -7.446203630630523
   1   1   3       -7.446203630630524
   1   2   1       -6.940835230280001
   1   2   2       -7.446203630630529
   1   2   3       -8.362128099933898
   1   3   1       -6.940835230280008
   1   3   2       -8.362128099933901
   1   3   3       -7.446203630630523
   2   1   1       -7.446203630630524
   2   1   2       -6.940835230280009
   2   1   3       -8.362128099933901
   2   2   1       -7.446203630630525
   2   2   2       -7.665027038102801
   2   2   3       -7.446203630630528
   2   3   1       -8.362128099933901
   2   3   2       -6.940835230280008
   2   3   3       -7.446203630630524
   3   1   1       -7.446203630630523
   3   1   2       -8.362128099933905
   3   1   3       -6.940835230280007
   3   2   1       -8.362128099933905
   3   2   2       -7.446203630630519
   3   2   3       -6.940835230280006
   3   3   1       -7.446203630630520
   3   3   2       -7.446203630630526
   3   3   3       -7.665027038102810

19
        0.000000000000000        0.000000000000000        0.000000000000000
        0.000000000000000        0.000000000000000        0.000000000000000
     1     2     2
   1   1   1        7.665027038102801
   1   1   2        7.446203630630525
   1   1   3        7.446203630630528
   1   2   1        7.446203630630529
   1   2   2        6.940835230280001
   1   2   3        8.362128099933898
   1   3   1        7.446203630630519
   1   3   2        8.362128099933905
   1   3   3        6.940835230280006
   2   1   1        6.940835230280009
   2   1   2        7.446203630630524
   2   1   3        8.362128099933901
   2   2   1        7.446203630630523
   2   2   2        7.665027038102809
   2   2   3        7.446203630630524
   2   3   1        8.362128099933905
   2   3   2        7.446203630630523
   2   3   3        6.940835230280007
   3   1   1        6.940835230280008
   3   1   2        8.362128099933901
   3   1   3        7.446203630630524
   3   2   1        8.362128099933901
   3   2   2        6.940835230280008
   3   2   3        7.446203630630523
   3   3   1        7.446203630630526
   3   3   2        7.446203630630520
   3   3   3        7.665027038102810

20
        0.000000000000000        0.000000000000000        0.000000000000000
        0.000000000000000        2.716000000000000        2.716000000000000
     1     2     1
   1   1   1       -0.971919630054423
   1   1   2       -0.306409107163433
   1   1   3       -0.306409107163433
   1   2   1       -0.000000000000000
   1   2   2        0.161488600849143
   1   2   3        0.323291187126914
   1   3   1       -0.000000000000000
   1   3   2        0.323291187126914
   1   3   3        0.161488600849143
   2   1   1        0.306409107163433
   2   1   2       -0.089303384663310
   2   1   3        0.015301309696249
   2   2   1        0.161488600849143
   2   2   2        0.000000000000000
   2   2   3        0.051832692325368
   2   3   1        0.323291187126914
   2   3   2        0.000000000000000
   2   3   3       -0.051832692325368
   3   1   1        0.306409107163433
   3   1   2        0.015301309696249
   3   1   3       -0.089303384663310
   3   2   1        0.323291187126914
   3   2   2       -0.051832692325368
   3   2   3        0.000000000000000
   3   3   1        0.161488600849143
   3   3   2        0.051832692325368
   3   3   3       -0.000000000000000

21
        0.000000000000000        0.000000000000000        0.000000000000000
        0.000000000000000       -2.716000000000000       -2.716000000000000
     1     2     2
   1   1   1        0.971919630054423
   1   1   2        0.306409107163433
   1   1   3        0.306409107163433
   1   2   1       -0.306409107163433
   1   2   2        0.089303384663310
   1   2   3       -0.015301309696249
   1   3   1       -0.306409107163433
   1   3   2       -0.015301309696249
   1   3   3        0.089303384663310
   2   1   1        0.000000000000000
   2   1   2       -0.161488600849143
   2   1   3       -0.323291187126914
   2   2   1       -0.161488600849143
   2   2   2        0.000000000000000
   2   2   3       -0.051832692325368
   2   3   1       -0.323291187126914
   2   3   2        0.051832692325368
   2   3   3       -0.000000000000000
   3   1   1        0.000000000000000
   3   1   2       -0.323291187126914
   3   1   3       -0.161488600849143
   3   2   1       -0.323291187126914
   3   2   2       -0.000000000000000
   3   2   3        0.051832692325368
   3   3   1       -0.161488600849143
   3   3   2       -0.051832692325368
   3   3   3       -0.000000000000000

22
        0.000000000000000        0.000000000000000        0.000000000000000
        2.716000000000000        0.000000000000000        2.716000000000000
     1     2     1
   1   1   1       -0.000000000000000
   1   1   2        0.161488600849143
   1   1   3        0.051832692325368
   1   2   1       -0.089303384663310
   1   2   2        0.306409107163433
   1   2   3        0.015301309696249
   1   3   1        0.000000000000000
   1   3   2        0.323291187126914
   1   3   3       -0.051832692325368
   2   1   1        0.161488600849143
   2   1   2       -0.000000000000000
   2   1   3        0.323291187126914
   2   2   1       -0.306409107163433
   2   2   2       -0.971919630054423
   2   2   3       -0.306409107163433
   2   3   1        0.323291187126914
   2   3   2       -0.000000000000000
   2   3   3        0.161488600849143
   3   1   1       -0.051832692325368
   3   1   2        0.323291187126914
   3   1   3        0.000000000000000
   3   2   1        0.015301309696249
   3   2   2        0.306409107163433
   3   2   3       -0.089303384663310
   3   3   1        0.051832692325368
   3   3   2        0.161488600849143
   3   3   3        0.000000000000000

23
        0.000000000000000        0.000000000000000        0.000000000000000
       -2.716000000000000        0.000000000000000       -2.716000000000000
     1     2     2
   1   1   1       -0.000000000000000
   1   1   2       -0.161488600849143
   1   1   3       -0.051832692325368
   1   2   1       -0.161488600849143
   1   2   2        0.000000000000000
   1   2   3       -0.323291187126914
   1   3   1        0.051832692325368
   1   3   2       -0.323291187126914
   1   3   3       -0.000000000000000
   2   1   1        0.089303384663310
   2   1   2       -0.306409107163433
   2   1   3       -0.015301309696249
   2   2   1        0.306409107163433
   2   2   2        0.971919630054423
   2   2   3        0.306409107163433
   2   3   1       -0.015301309696249
   2   3   2       -0.306409107163433
   2   3   3        0.089303384663310
   3   1   1       -0.000000000000000
   3   1   2       -0.323291187126914
   3   1   3        0.051832692325368
   3   2   1       -0.323291187126914
   3   2   2        0.000000000000000
   3   2   3       -0.161488600849143
   3   3   1       -0.051832692325368
   3   3   2       -0.161488600849143
   3   3   3        0.000000000000000

24
        0.000000000000000        0.000000000000000        0.000000000000000
        2.716000000000000        2.716000000000000        0.000000000000000
     1     2     1
   1   1   1        0.000000000000000
   1   1   2        0.051832692325368
   1   1   3        0.161488600849143
   1   2   1        0.000000000000000
   1   2   2       -0.051832692325368
   1   2   3        0.323291187126914
   1   3   1       -0.089303384663310
   1   3   2        0.015301309696249
   1   3   3        0.306409107163433
   2   1   1       -0.051832692325368
   2   1   2        0.000000000000000
   2   1   3        0.323291187126914
   2   2   1        0.051832692325368
   2   2   2       -0.000000000000000
   2   2   3        0.161488600849143
   2   3   1        0.015301309696249
   2   3   2       -0.089303384663310
   2   3   3        0.306409107163433
   3   1   1        0.161488600849143
   3   1   2        0.323291187126914
   3   1   3       -0.000000000000000
   3   2   1        0.323291187126914
   3   2   2        0.161488600849143
   3   2   3       -0.000000000000000
   3   3   1       -0.306409107163433
   3   3   2       -0.306409107163433
   3   3   3       -0.971919630054423

25
        0.000000000000000        0.000000000000000        0.000000000000000
       -2.716000000000000       -2.716000000000000        0.000000000000000
     1     2     2
   1   1   1        0.000000000000000
   1   1   2       -0.051832692325368
   1   1   3       -0.161488600849143
   1   2   1        0.051832692325368
   1   2   2       -0.000000000000000
   1   2   3       -0.323291187126914
   1   3   1       -0.161488600849143
   1   3   2       -0.323291187126914
   1   3   3        0.000000000000000
   2   1   1       -0.000000000000000
   2   1   2        0.051832692325368
   2   1   3       -0.323291187126914
   2   2   1       -0.051832692325368
   2   2   2       -0.000000000000000
   2   2   3       -0.161488600849143
   2   3   1       -0.323291187126914
   2   3   2       -0.161488600849143
   2   3   3        0.000000000000000
   3   1   1        0.089303384663310
   3   1   2       -0.015301309696249
   3   1   3       -0.306409107163433
   3   2   1       -0.015301309696249
   3   2   2        0.089303384663310
   3   2   3       -0.306409107163433
   3   3   1        0.306409107163433
   3   3   2        0.306409107163433