    2   54
    1    1
       15.725831643611990       -0.000000000000000        0.000000000000000
       -0.000000000000000       15.725831643611990        0.000000000000000
        0.000000000000000        0.000000000000000       15.725831643611990
    1    2
        0.060567860950867        0.183967786033669        0.183967786033669
       -0.183967786033669       -0.140347704862968       -0.197322392481961
       -0.183967786033669       -0.197322392481961       -0.140347704862968
    1    3
        0.060567860950867       -0.183967786033669       -0.183967786033669
        0.183967786033669       -0.140347704862968       -0.197322392481961
        0.183967786033669       -0.197322392481961       -0.140347704862968
    1    4
       -0.140347704862968       -0.183967786033669       -0.197322392481961
        0.183967786033669        0.060567860950867        0.183967786033669
       -0.197322392481961       -0.183967786033669       -0.140347704862968
    1    5
        0.000000000000000        0.000000000000000        0.000000000000000
        0.000000000000000        0.000000000000000        0.000000000000000
        0.000000000000000        0.000000000000000        0.000000000000000
    1    6
       -0.140347704862968        0.197322392481961        0.183967786033669
        0.197322392481961       -0.140347704862968       -0.183967786033669
       -0.183967786033669        0.183967786033669        0.060567860950867
    1    7
       -0.140347704862968        0.183967786033669       -0.197322392481961
       -0.183967786033669        0.060567860950867       -0.183967786033669
       -0.197322392481961        0.183967786033669       -0.140347704862968
    1    8
       -0.140347704862968        0.197322392481961       -0.183967786033669
        0.197322392481961       -0.140347704862968        0.183967786033669
        0.183967786033669       -0.183967786033669        0.060567860950867
    1    9
        0.000000000000000        0.000000000000000        0.000000000000000
        0.000000000000000        0.000000000000000        0.000000000000000
        0.000000000000000        0.000000000000000        0.000000000000000
    1   10
       -0.140347704862968       -0.197322392481961       -0.183967786033669
       -0.197322392481961       -0.140347704862968       -0.183967786033669
        0.183967786033669        0.183967786033669        0.060567860950867
    1   11
        0.000000000000000        0.000000000000000        0.000000000000000
        0.000000000000000        0.000000000000000        0.000000000000000
        0.000000000000000        0.000000000000000        0.000000000000000
    1   12
       -0.140347704862968        0.183967786033669        0.197322392481961
       -0.183967786033669        0.060567860950867        0.183967786033669
        0.197322392481961       -0.183967786033669       -0.140347704862968
    1   13
        0.000000000000000        0.000000000000000        0.000000000000000
        0.000000000000000        0.000000000000000        0.000000000000000
        0.000000000000000        0.000000000000000        0.000000000000000
    1   14
        0.000000000000000        0.000000000000000        0.000000000000000
        0.000000000000000        0.000000000000000        0.000000000000000
        0.000000000000000        0.000000000000000        0.000000000000000
    1   15
        0.000000000000000        0.000000000000000        0.000000000000000
        0.000000000000000        0.000000000000000        0.000000000000000
        0.000000000000000        0.000000000000000        0.000000000000000
    1   16
        0.060567860950867       -0.183967786033669        0.183967786033669
        0.183967786033669       -0.140347704862968        0.197322392481961
       -0.183967786033669        0.197322392481961       -0.140347704862968
    1   17
        0.000000000000000        0.000000000000000        0.000000000000000
        0.000000000000000        0.000000000000000        0.000000000000000
        0.000000000000000        0.000000000000000        0.000000000000000
    1   18
        0.000000000000000        0.000000000000000        0.000000000000000
        0.000000000000000        0.000000000000000        0.000000000000000
        0.000000000000000        0.000000000000000        0.000000000000000
    1   19
       -0.140347704862968       -0.197322392481961        0.183967786033669
       -0.197322392481961       -0.140347704862968        0.183967786033669
       -0.183967786033669       -0.183967786033669        0.060567860950867
    1   20
       -0.140347704862968       -0.183967786033669        0.197322392481961
        0.183967786033669        0.060567860950867       -0.183967786033669
        0.197322392481961        0.183967786033669       -0.140347704862968
    1   21
        0.000000000000000        0.000000000000000        0.000000000000000
        0.000000000000000        0.000000000000000        0.000000000000000
        0.000000000000000        0.000000000000000        0.000000000000000
    1   22
        0.060567860950867        0.183967786033669       -0.183967786033669
       -0.183967786033669       -0.140347704862968        0.197322392481961
        0.183967786033669        0.197322392481961       -0.140347704862968
    1   23
        0.000000000000000        0.000000000000000        0.000000000000000
        0.000000000000000        0.000000000000000        0.000000000000000
        0.000000000000000        0.000000000000000        0.000000000000000
    1   24
        0.000000000000000        0.000000000000000        0.000000000000000
        0.000000000000000        0.000000000000000        0.000000000000000
        0.000000000000000        0.000000000000000        0.000000000000000
    1   25
        0.000000000000000        0.000000000000000        0.000000000000000
        0.000000000000000        0.000000000000000        0.000000000000000
        0.000000000000000        0.000000000000000        0.000000000000000
    1   26
        0.000000000000000        0.000000000000000        0.000000000000000
        0.000000000000000        0.000000000000000        0.000000000000000
        0.000000000000000        0.000000000000000        0.000000000000000
    1   27
        0.000000000000000        0.000000000000000        0.000000000000000
        0.000000000000000        0.000000000000000        0.000000000000000
        0.000000000000000        0.000000000000000        0.000000000000000
    1   28
       -3.711330362127929       -2.506529046636004       -2.506529046636004
       -2.506529046636004       -3.711330362127929       -2.506529046636004
       -2.506529046636004       -2.506529046636004       -3.711330362127929
    1   29
        0.000000000000000        0.000000000000000        0.000000000000000
        0.000000000000000        0.000000000000000        0.000000000000000
        0.000000000000000        0.000000000000000        0.000000000000000
    1   30
       -3.711330362127929        2.506529046636004        2.506529046636004
        2.506529046636004       -3.711330362127929       -2.506529046636004
        2.506529046636004       -2.506529046636004       -3.711330362127929
    1   31
        0.000000000000000        0.000000000000000        0.000000000000000
        0.000000000000000        0.000000000000000        0.000000000000000
        0.000000000000000        0.000000000000000        0.000000000000000
    1   32
        0.000000000000000        0.000000000000000        0.000000000000000
        0.000000000000000        0.000000000000000        0.000000000000000
        0.000000000000000        0.000000000000000        0.000000000000000
    1   33
        0.000000000000000        0.000000000000000        0.000000000000000
        0.000000000000000        0.000000000000000        0.000000000000000
        0.000000000000000        0.000000000000000        0.000000000000000
    1   34
       -3.711330362127929        2.506529046636004       -2.506529046636004
        2.506529046636004       -3.711330362127929        2.506529046636004
       -2.506529046636004        2.506529046636004       -3.711330362127929
    1   35
        0.000000000000000        0.000000000000000        0.000000000000000
        0.000000000000000        0.000000000000000        0.000000000000000
        0.000000000000000        0.000000000000000        0.000000000000000
    1   36
        0.000000000000000        0.000000000000000        0.000000000000000
        0.000000000000000        0.000000000000000        0.000000000000000
        0.000000000000000        0.000000000000000        0.000000000000000
    1   37
        0.000000000000000        0.000000000000000        0.000000000000000
        0.000000000000000        0.000000000000000        0.000000000000000
        0.000000000000000        0.000000000000000        0.000000000000000
    1   38
        0.000000000000000        0.000000000000000        0.000000000000000
        0.000000000000000        0.000000000000000        0.000000000000000
        0.000000000000000        0.000000000000000        0.000000000000000
    1   39
        0.000000000000000        0.000000000000000        0.000000000000000
        0.000000000000000        0.000000000000000        0.000000000000000
        0.000000000000000        0.000000000000000        0.000000000000000
    1   40
        0.000000000000000        0.000000000000000        0.000000000000000
        0.000000000000000        0.000000000000000        0.000000000000000
        0.000000000000000        0.000000000000000        0.000000000000000
    1   41
        0.000000000000000        0.000000000000000        0.000000000000000
        0.000000000000000        0.000000000000000        0.000000000000000
        0.000000000000000        0.000000000000000        0.000000000000000
    1   42
        0.000000000000000        0.000000000000000        0.000000000000000
        0.000000000000000        0.000000000000000        0.000000000000000
        0.000000000000000        0.000000000000000        0.000000000000000
    1   43
        0.000000000000000        0.000000000000000        0.000000000000000
        0.000000000000000        0.000000000000000        0.000000000000000
        0.000000000000000        0.000000000000000        0.000000000000000
    1   44
        0.000000000000000        0.000000000000000        0.000000000000000
        0.000000000000000        0.000000000000000        0.000000000000000
        0.000000000000000        0.000000000000000        0.000000000000000
    1   45
        0.000000000000000        0.000000000000000        0.000000000000000
        0.000000000000000        0.000000000000000        0.000000000000000
        0.000000000000000        0.000000000000000        0.000000000000000
    1   46
       -3.711330362127929       -2.506529046636004        2.506529046636004
       -2.506529046636004       -3.711330362127929        2.506529046636004
        2.506529046636004        2.506529046636004       -3.711330362127929
    1   47
        0.000000000000000        0.000000000000000        0.000000000000000
        0.000000000000000        0.000000000000000        0.000000000000000
        0.000000000000000        0.000000000000000        0.000000000000000
    1   48
        0.000000000000000        0.000000000000000        0.000000000000000
        0.000000000000000        0.000000000000000        0.000000000000000
        0.000000000000000        0.000000000000000        0.000000000000000
    1   49
        0.000000000000000        0.000000000000000        0.000000000000000
        0.000000000000000        0.000000000000000        0.000000000000000
        0.000000000000000        0.000000000000000        0.000000000000000
    1   50
        0.000000000000000        0.000000000000000        0.000000000000000
        0.000000000000000        0.000000000000000        0.000000000000000
        0.000000000000000        0.000000000000000        0.000000000000000
    1   51
        0.000000000000000        0.000000000000000        0.000000000000000
        0.000000000000000        0.000000000000000        0.000000000000000
        0.000000000000000        0.000000000000000        0.000000000000000
    1   52
        0.000000000000000        0.000000000000000        0.000000000000000
        0.000000000000000        0.000000000000000        0.000000000000000
        0.000000000000000        0.000000000000000        0.000000000000000
    1   53
        0.000000000000000        0.000000000000000        0.000000000000000
        0.000000000000000        0.000000000000000        0.000000000000000
        0.000000000000000        0.000000000000000        0.000000000000000
    1   54
        0.000000000000000        0.000000000000000        0.000000000000000
        0.000000000000000        0.000000000000000        0.000000000000000
        0.000000000000000        0.000000000000000        0.000000000000000
   28    1
       -3.711330362127929       -2.506529046636004       -2.506529046636004
       -2.506529046636004       -3.711330362127929       -2.506529046636004
       -2.506529046636004       -2.506529046636004       -3.711330362127929
   28    2
       -3.711330362127929        2.506529046636004        2.506529046636004
        2.506529046636004       -3.711330362127929       -2.506529046636004
        2.506529046636004       -2.506529046636004       -3.711330362127929
   28    3
        0.000000000000000        0.000000000000000        0.000000000000000
        0.000000000000000        0.000000000000000        0.000000000000000
        0.000000000000000        0.000000000000000        0.000000000000000
   28    4
       -3.711330362127929        2.506529046636004       -2.506529046636004
        2.506529046636004       -3.711330362127929        2.506529046636004
       -2.506529046636004        2.506529046636004       -3.711330362127929
   28    5
        0.000000000000000        0.000000000000000        0.000000000000000
        0.000000000000000        0.000000000000000        0.000000000000000
        0.000000000000000        0.000000000000000        0.000000000000000
   28    6
        0.000000000000000        0.000000000000000        0.000000000000000
        0.000000000000000        0.000000000000000        0.000000000000000
        0.000000000000000        0.000000000000000        0.000000000000000
   28    7
        0.000000000000000        0.000000000000000        0.000000000000000
        0.000000000000000        0.000000000000000        0.000000000000000
        0.000000000000000        0.000000000000000        0.000000000000000
   28    8
        0.000000000000000        0.000000000000000        0.000000000000000
        0.000000000000000        0.000000000000000        0.000000000000000
        0.000000000000000        0.000000000000000        0.000000000000000
   28    9
        0.000000000000000        0.000000000000000        0.000000000000000
        0.000000000000000        0.000000000000000        0.000000000000000
        0.000000000000000        0.000000000000000        0.000000000000000
   28   10
       -3.711330362127929       -2.506529046636004        2.506529046636004
       -2.506529046636004       -3.711330362127929        2.506529046636004
        2.506529046636004        2.506529046636004       -3.711330362127929
   28   11
        0.000000000000000        0.000000000000000        0.000000000000000
        0.000000000000000        0.000000000000000        0.000000000000000
        0.000000000000000        0.000000000000000        0.000000000000000
   28   12
        0.000000000000000        0.000000000000000        0.000000000000000
        0.000000000000000        0.000000000000000        0.000000000000000
        0.000000000000000        0.000000000000000        0.000000000000000
   28   13
        0.000000000000000        0.000000000000000        0.000000000000000
        0.000000000000000        0.000000000000000        0.000000000000000
        0.000000000000000        0.000000000000000        0.000000000000000
   28   14
        0.000000000000000        0.000000000000000        0.000000000000000
        0.000000000000000        0.000000000000000        0.000000000000000
        0.000000000000000        0.000000000000000        0.000000000000000
   28   15
        0.000000000000000        0.000000000000000        0.000000000000000
        0.000000000000000        0.000000000000000        0.000000000000000
        0.000000000000000        0.000000000000000        0.000000000000000
   28   16
        0.000000000000000        0.000000000000000        0.000000000000000
        0.000000000000000        0.000000000000000        0.000000000000000
        0.000000000000000        0.000000000000000        0.000000000000000
   28   17
        0.000000000000000        0.000000000000000        0.000000000000000
        0.000000000000000        0.000000000000000        0.000000000000000
        0.000000000000000        0.000000000000000        0.000000000000000
   28   18
        0.000000000000000        0.000000000000000        0.000000000000000
        0.000000000000000        0.000000000000000        0.000000000000000
        0.000000000000000        0.000000000000000        0.000000000000000
   28   19
        0.000000000000000        0.000000000000000        0.000000000000000
        0.000000000000000        0.000000000000000        0.000000000000000
        0.000000000000000        0.000000000000000        0.000000000000000
   28   20
        0.000000000000000        0.000000000000000        0.000000000000000
        0.000000000000000        0.000000000000000        0.000000000000000
        0.000000000000000        0.000000000000000        0.000000000000000
   28   21
        0.000000000000000        0.000000000000000        0.000000000000000
        0.000000000000000        0.000000000000000        0.000000000000000
        0.000000000000000        0.000000000000000        0.000000000000000
   28   22
        0.000000000000000        0.000000000000000        0.000000000000000
        0.000000000000000        0.000000000000000        0.000000000000000
        0.000000000000000        0.000000000000000        0.000000000000000
   28   23
        0.000000000000000        0.000000000000000        0.000000000000000
        0.000000000000000        0.000000000000000        0.000000000000000
        0.000000000000000        0.000000000000000        0.000000000000000
   28   24
        0.000000000000000        0.000000000000000        0.000000000000000
        0.000000000000000        0.000000000000000        0.000000000000000
        0.000000000000000        0.000000000000000        0.000000000000000
   28   25
        0.000000000000000        0.000000000000000        0.000000000000000
        0.000000000000000        0.000000000000000        0.000000000000000
        0.000000000000000        0.000000000000000        0.000000000000000
   28   26
        0.000000000000000        0.000000000000000        0.000000000000000
        0.000000000000000        0.000000000000000        0.000000000000000
        0.000000000000000        0.000000000000000        0.000000000000000
   28   27
        0.000000000000000        0.000000000000000        0.000000000000000
        0.000000000000000        0.000000000000000        0.000000000000000
        0.000000000000000        0.000000000000000        0.000000000000000
   28   28
       15.725831643611990        0.000000000000000       -0.000000000000000
        0.000000000000000       15.725831643611990        0.000000000000000
       -0.000000000000000        0.000000000000000       15.725831643611990
   28   29
        0.060567860950867       -0.183967786033669       -0.183967786033669
        0.183967786033669       -0.140347704862968       -0.197322392481961
        0.183967786033669       -0.197322392481961       -0.140347704862968
   28   30
        0.060567860950867        0.183967786033669        0.183967786033669
       -0.183967786033669       -0.140347704862968       -0.197322392481961
       -0.183967786033669       -0.197322392481961       -0.140347704862968
   28   31
       -0.140347704862968        0.183967786033669       -0.197322392481961
       -0.183967786033669        0.060567860950867       -0.183967786033669
       -0.197322392481961        0.183967786033669       -0.140347704862968
   28   32
        0.000000000000000        0.000000000000000        0.000000000000000
        0.000000000000000        0.000000000000000        0.000000000000000
        0.000000000000000        0.000000000000000        0.000000000000000
   28   33
       -0.140347704862968        0.197322392481961       -0.183967786033669
        0.197322392481961       -0.140347704862968        0.183967786033669
        0.183967786033669       -0.183967786033669        0.060567860950867
   28   34
       -0.140347704862968       -0.183967786033669       -0.197322392481961
        0.183967786033669        0.060567860950867        0.183967786033669
       -0.197322392481961       -0.183967786033669       -0.140347704862968
   28   35
       -0.140347704862968        0.197322392481961        0.183967786033669
        0.197322392481961       -0.140347704862968       -0.183967786033669
       -0.183967786033669        0.183967786033669        0.060567860950867
   28   36
        0.000000000000000        0.000000000000000        0.000000000000000
        0.000000000000000        0.000000000000000        0.000000000000000
        0.000000000000000        0.000000000000000        0.000000000000000
   28   37
       -0.140347704862968       -0.197322392481961        0.183967786033669
       -0.197322392481961       -0.140347704862968        0.183967786033669
       -0.183967786033669       -0.183967786033669        0.060567860950867
   28   38
        0.000000000000000        0.000000000000000        0.000000000000000
        0.000000000000000        0.000000000000000        0.000000000000000
        0.000000000000000        0.000000000000000        0.000000000000000
   28   39
       -0.140347704862968       -0.183967786033669        0.197322392481961
        0.183967786033669        0.060567860950867       -0.183967786033669
        0.197322392481961        0.183967786033669       -0.140347704862968
   28   40
        0.000000000000000        0.000000000000000        0.000000000000000
        0.000000000000000        0.000000000000000        0.000000000000000
        0.000000000000000        0.000000000000000        0.000000000000000
   28   41
        0.000000000000000        0.000000000000000        0.000000000000000
        0.000000000000000        0.000000000000000        0.000000000000000
        0.000000000000000        0.000000000000000        0.000000000000000
   28   42
        0.000000000000000        0.000000000000000        0.000000000000000
        0.000000000000000        0.000000000000000        0.000000000000000
        0.000000000000000        0.000000000000000        0.000000000000000
   28   43
        0.060567860950867        0.183967786033669       -0.183967786033669
       -0.183967786033669       -0.140347704862968        0.197322392481961
        0.183967786033669        0.197322392481961       -0.140347704862968
   28   44
        0.000000000000000        0.000000000000000        0.000000000000000
        0.000000000000000        0.000000000000000        0.000000000000000
        0.000000000000000        0.000000000000000        0.000000000000000
   28   45
        0.000000000000000        0.000000000000000        0.000000000000000
        0.000000000000000        0.000000000000000        0.000000000000000
        0.000000000000000        0.000000000000000        0.000000000000000
   28   46
       -0.140347704862968       -0.197322392481961       -0.183967786033669
       -0.197322392481961       -0.140347704862968       -0.183967786033669
        0.183967786033669        0.183967786033669        0.060567860950867
   28   47
       -0.140347704862968        0.183967786033669        0.197322392481961
       -0.183967786033669        0.060567860950867        0.183967786033669
        0.197322392481961       -0.183967786033669       -0.140347704862968
   28   48
        0.000000000000000        0.000000000000000        0.000000000000000
        0.000000000000000        0.000000000000000        0.000000000000000
        0.000000000000000        0.000000000000000        0.000000000000000
   28   49
        0.060567860950867       -0.183967786033669        0.183967786033669
        0.183967786033669       -0.140347704862968        0.197322392481961
       -0.183967786033669        0.197322392481961       -0.140347704862968
   28   50
        0.000000000000000        0.000000000000000        0.000000000000000
        0.000000000000000        0.000000000000000        0.000000000000000
        0.000000000000000        0.000000000000000        0.000000000000000
   28   51
        0.000000000000000        0.000000000000000        0.000000000000000
        0.000000000000000        0.000000000000000        0.000000000000000
        0.000000000000000        0.000000000000000        0.000000000000000
   28   52
        0.000000000000000        0.000000000000000        0.000000000000000
        0.000000000000000        0.000000000000000        0.000000000000000
        0.000000000000000        0.000000000000000        0.000000000000000
   28   53
        0.000000000000000        0.000000000000000        0.000000000000000
        0.000000000000000        0.000000000000000        0.000000000000000
        0.000000000000000        0.000000000000000        0.000000000000000
   28   54
        0.000000000000000        0.000000000000000        0.000000000000000
        0.000000000000000        0.000000000000000        0.000000000000000
        0.000000000000000        0.000000000000000        0.000000000000000
