108
Lattice="12.149999999999999 0.0 0.0 0.0 12.149999999999999 0.0 0.0 0.0 12.149999999999999" Properties=species:S:1:pos:R:3:forces:R:3:energies:R:1 energy=-0.16222113933211801 free_energy=-0.16222113933211801 pbc="T T T"
Al       0.00000000       0.00000000       0.00000000      -0.00000000      -0.00000000       0.00000000      -0.00150205
Al       0.00000000       2.02500000       2.02500000      -0.00000000       0.00000000      -0.00000000      -0.00150205
Al       2.02500000       0.00000000       2.02500000       0.00000000      -0.00000000       0.00000000      -0.00150205
Al       2.02500000       2.02500000       0.00000000      -0.00000000      -0.00000000       0.00000000      -0.00150205
Al       0.00000000       0.00000000       4.05000000      -0.00000000      -0.00000000       0.00000000      -0.00150205
Al       0.00000000       2.02500000       6.07500000       0.00000000       0.00000000       0.00000000      -0.00150205
Al       2.02500000       0.00000000       6.07500000      -0.00000000       0.00000000      -0.00000000      -0.00150205
Al       2.02500000       2.02500000       4.05000000      -0.00000000       0.00000000       0.00000000      -0.00150205
Al       0.00000000       0.00000000       8.10000000      -0.00000000       0.00000000      -0.00000000      -0.00150205
Al       0.00000000       2.02500000      10.12500000      -0.00000000       0.00000000      -0.00000000      -0.00150205
Al       2.02500000       0.00000000      10.12500000      -0.00000000      -0.00000000      -0.00000000      -0.00150205
Al       2.02500000       2.02500000       8.10000000       0.00000000       0.00000000      -0.00000000      -0.00150205
Al       0.00000000       4.05000000       0.00000000       0.00000000       0.00000000       0.00000000      -0.00150205
Al       0.00000000       6.07500000       2.02500000       0.00000000      -0.00000000       0.00000000      -0.00150205
Al       2.02500000       4.05000000       2.02500000      -0.00000000       0.00000000       0.00000000      -0.00150205
Al       2.02500000       6.07500000       0.00000000       0.00000000       0.00000000       0.00000000      -0.00150205
Al       0.00000000       4.05000000       4.05000000       0.00000000       0.00000000       0.00000000      -0.00150205
Al       0.00000000       6.07500000       6.07500000       0.00000000       0.00000000       0.00000000      -0.00150205
Al       2.02500000       4.05000000       6.07500000      -0.00000000       0.00000000       0.00000000      -0.00150205
Al       2.02500000       6.07500000       4.05000000      -0.00000000       0.00000000      -0.00000000      -0.00150205
Al       0.00000000       4.05000000       8.10000000       0.00000000       0.00000000      -0.00000000      -0.00150205
Al       0.00000000       6.07500000      10.12500000       0.00000000      -0.00000000      -0.00000000      -0.00150205
Al       2.02500000       4.05000000      10.12500000       0.00000000       0.00000000      -0.00000000      -0.00150205
Al       2.02500000       6.07500000       8.10000000      -0.00000000       0.00000000       0.00000000      -0.00150205
Al       0.00000000       8.10000000       0.00000000       0.00000000       0.00000000       0.00000000      -0.00150205
Al       0.00000000      10.12500000       2.02500000       0.00000000      -0.00000000      -0.00000000      -0.00150205
Al       2.02500000       8.10000000       2.02500000      -0.00000000      -0.00000000       0.00000000      -0.00150205
Al       2.02500000      10.12500000       0.00000000      -0.00000000      -0.00000000       0.00000000      -0.00150205
Al       0.00000000       8.10000000       4.05000000       0.00000000      -0.00000000       0.00000000      -0.00150205
Al       0.00000000      10.12500000       6.07500000       0.00000000      -0.00000000      -0.00000000      -0.00150205
Al       2.02500000       8.10000000       6.07500000      -0.00000000      -0.00000000       0.00000000      -0.00150205
Al       2.02500000      10.12500000       4.05000000       0.00000000      -0.00000000       0.00000000      -0.00150205
Al       0.00000000       8.10000000       8.10000000       0.00000000      -0.00000000       0.00000000      -0.00150205
Al       0.00000000      10.12500000      10.12500000       0.00000000      -0.00000000      -0.00000000      -0.00150205
Al       2.02500000       8.10000000      10.12500000       0.00000000       0.00000000      -0.00000000      -0.00150205
Al       2.02500000      10.12500000       8.10000000      -0.00000000      -0.00000000       0.00000000      -0.00150205
Al       4.05000000       0.00000000       0.00000000       0.00000000       0.00000000       0.00000000      -0.00150205
Al       4.05000000       2.02500000       2.02500000       0.00000000       0.00000000       0.00000000      -0.00150205
Al       6.07500000       0.00000000       2.02500000       0.00000000       0.00000000       0.00000000      -0.00150205
Al       6.07500000       2.02500000       0.00000000       0.00000000      -0.00000000       0.00000000      -0.00150205
Al       4.05000000       0.00000000       4.05000000       0.00000000       0.00000000       0.00000000      -0.00150205
Al       4.05000000       2.02500000       6.07500000       0.00000000       0.00000000       0.00000000      -0.00150205
Al       6.07500000       0.00000000       6.07500000       0.00000000       0.00000000       0.00000000      -0.00150205
Al       6.07500000       2.02500000       4.05000000       0.00000000       0.00000000       0.00000000      -0.00150205
Al       4.05000000       0.00000000       8.10000000       0.00000000       0.00000000      -0.00000000      -0.00150205
Al       4.05000000       2.02500000      10.12500000       0.00000000       0.00000000      -0.00000000      -0.00150205
Al       6.07500000       0.00000000      10.12500000       0.00000000       0.00000000      -0.00000000      -0.00150205
Al       6.07500000       2.02500000       8.10000000       0.00000000       0.00000000       0.00000000      -0.00150205
Al       4.05000000       4.05000000       0.00000000       0.00000000       0.00000000       0.00000000      -0.00150205
Al       4.05000000       6.07500000       2.02500000       0.00000000       0.00000000       0.00000000      -0.00150205
Al       6.07500000       4.05000000       2.02500000       0.00000000       0.00000000       0.00000000      -0.00150205
Al       6.07500000       6.07500000       0.00000000       0.00000000       0.00000000       0.00000000      -0.00150205
Al       4.05000000       4.05000000       4.05000000       0.00000000      -0.00000000      -0.00000000      -0.00150205
Al       4.05000000       6.07500000       6.07500000      -0.00000000       0.00000000       0.00000000      -0.00150205
Al       6.07500000       4.05000000       6.07500000       0.00000000      -0.00000000       0.00000000      -0.00150205
Al       6.07500000       6.07500000       4.05000000       0.00000000       0.00000000      -0.00000000      -0.00150205
Al       4.05000000       4.05000000       8.10000000      -0.00000000       0.00000000      -0.00000000      -0.00150205
Al       4.05000000       6.07500000      10.12500000       0.00000000       0.00000000      -0.00000000      -0.00150205
Al       6.07500000       4.05000000      10.12500000       0.00000000      -0.00000000      -0.00000000      -0.00150205
Al       6.07500000       6.07500000       8.10000000       0.00000000       0.00000000       0.00000000      -0.00150205
Al       4.05000000       8.10000000       0.00000000       0.00000000      -0.00000000       0.00000000      -0.00150205
Al       4.05000000      10.12500000       2.02500000       0.00000000      -0.00000000       0.00000000      -0.00150205
Al       6.07500000       8.10000000       2.02500000       0.00000000      -0.00000000      -0.00000000      -0.00150205
Al       6.07500000      10.12500000       0.00000000       0.00000000      -0.00000000       0.00000000      -0.00150205
Al       4.05000000       8.10000000       4.05000000       0.00000000      -0.00000000       0.00000000      -0.00150205
Al       4.05000000      10.12500000       6.07500000       0.00000000      -0.00000000       0.00000000      -0.00150205
Al       6.07500000       8.10000000       6.07500000       0.00000000      -0.00000000       0.00000000      -0.00150205
Al       6.07500000      10.12500000       4.05000000       0.00000000      -0.00000000       0.00000000      -0.00150205
Al       4.05000000       8.10000000       8.10000000       0.00000000      -0.00000000      -0.00000000      -0.00150205
Al       4.05000000      10.12500000      10.12500000       0.00000000      -0.00000000      -0.00000000      -0.00150205
Al       6.07500000       8.10000000      10.12500000       0.00000000       0.00000000      -0.00000000      -0.00150205
Al       6.07500000      10.12500000       8.10000000       0.00000000      -0.00000000      -0.00000000      -0.00150205
Al       8.10000000       0.00000000       0.00000000       0.00000000       0.00000000       0.00000000      -0.00150205
Al       8.10000000       2.02500000       2.02500000       0.00000000       0.00000000       0.00000000      -0.00150205
Al      10.12500000       0.00000000       2.02500000      -0.00000000       0.00000000      -0.00000000      -0.00150205
Al      10.12500000       2.02500000       0.00000000      -0.00000000      -0.00000000       0.00000000      -0.00150205
Al       8.10000000       0.00000000       4.05000000      -0.00000000       0.00000000       0.00000000      -0.00150205
Al       8.10000000       2.02500000       6.07500000       0.00000000      -0.00000000       0.00000000      -0.00150205
Al      10.12500000       0.00000000       6.07500000      -0.00000000       0.00000000       0.00000000      -0.00150205
Al      10.12500000       2.02500000       4.05000000      -0.00000000      -0.00000000       0.00000000      -0.00150205
Al       8.10000000       0.00000000       8.10000000       0.00000000       0.00000000       0.00000000      -0.00150205
Al       8.10000000       2.02500000      10.12500000       0.00000000       0.00000000      -0.00000000      -0.00150205
Al      10.12500000       0.00000000      10.12500000      -0.00000000       0.00000000      -0.00000000      -0.00150205
Al      10.12500000       2.02500000       8.10000000      -0.00000000       0.00000000       0.00000000      -0.00150205
Al       8.10000000       4.05000000       0.00000000      -0.00000000       0.00000000       0.00000000      -0.00150205
Al       8.10000000       6.07500000       2.02500000      -0.00000000       0.00000000      -0.00000000      -0.00150205
Al      10.12500000       4.05000000       2.02500000      -0.00000000       0.00000000       0.00000000      -0.00150205
Al      10.12500000       6.07500000       0.00000000      -0.00000000      -0.00000000       0.00000000      -0.00150205
Al       8.10000000       4.05000000       4.05000000       0.00000000      -0.00000000      -0.00000000      -0.00150205
Al       8.10000000       6.07500000       6.07500000       0.00000000       0.00000000       0.00000000      -0.00150205
Al      10.12500000       4.05000000       6.07500000      -0.00000000       0.00000000       0.00000000      -0.00150205
Al      10.12500000       6.07500000       4.05000000      -0.00000000       0.00000000       0.00000000      -0.00150205
Al       8.10000000       4.05000000       8.10000000      -0.00000000       0.00000000      -0.00000000      -0.00150205
Al       8.10000000       6.07500000      10.12500000      -0.00000000       0.00000000      -0.00000000      -0.00150205
Al      10.12500000       4.05000000      10.12500000      -0.00000000       0.00000000      -0.00000000      -0.00150205
Al      10.12500000       6.07500000       8.10000000      -0.00000000       0.00000000      -0.00000000      -0.00150205
Al       8.10000000       8.10000000       0.00000000      -0.00000000      -0.00000000       0.00000000      -0.00150205
Al       8.10000000      10.12500000       2.02500000       0.00000000      -0.00000000      -0.00000000      -0.00150205
Al      10.12500000       8.10000000       2.02500000      -0.00000000      -0.00000000      -0.00000000      -0.00150205
Al      10.12500000      10.12500000       0.00000000       0.00000000      -0.00000000       0.00000000      -0.00150205
Al       8.10000000       8.10000000       4.05000000      -0.00000000      -0.00000000       0.00000000      -0.00150205
Al       8.10000000      10.12500000       6.07500000       0.00000000      -0.00000000       0.00000000      -0.00150205
Al      10.12500000       8.10000000       6.07500000      -0.00000000      -0.00000000       0.00000000      -0.00150205
Al      10.12500000      10.12500000       4.05000000      -0.00000000      -0.00000000       0.00000000      -0.00150205
Al       8.10000000       8.10000000       8.10000000      -0.00000000       0.00000000       0.00000000      -0.00150205
Al       8.10000000      10.12500000      10.12500000       0.00000000      -0.00000000      -0.00000000      -0.00150205
Al      10.12500000       8.10000000      10.12500000      -0.00000000      -0.00000000      -0.00000000      -0.00150205
Al      10.12500000      10.12500000       8.10000000      -0.00000000      -0.00000000      -0.00000000      -0.00150205
