  842

    1
0.0000000000e+00 0.0000000000e+00 0.0000000000e+00
0.0000000000e+00 0.0000000000e+00 0.0000000000e+00
     1      1      1
 1  1  1     0.0000000000e+00
 1  1  2     0.0000000000e+00
 1  1  3     0.0000000000e+00
 1  2  1     0.0000000000e+00
 1  2  2     0.0000000000e+00
 1  2  3     2.3478105179e+01
 1  3  1     0.0000000000e+00
 1  3  2     2.3478105179e+01
 1  3  3     0.0000000000e+00
 2  1  1     0.0000000000e+00
 2  1  2     0.0000000000e+00
 2  1  3     2.3478105179e+01
 2  2  1     0.0000000000e+00
 2  2  2     0.0000000000e+00
 2  2  3     0.0000000000e+00
 2  3  1     2.3478105179e+01
 2  3  2     0.0000000000e+00
 2  3  3     0.0000000000e+00
 3  1  1     0.0000000000e+00
 3  1  2     2.3478105179e+01
 3  1  3     0.0000000000e+00
 3  2  1     2.3478105179e+01
 3  2  2     0.0000000000e+00
 3  2  3     0.0000000000e+00
 3  3  1     0.0000000000e+00
 3  3  2     0.0000000000e+00
 3  3  3     0.0000000000e+00

    2
0.0000000000e+00 0.0000000000e+00 0.0000000000e+00
0.0000000000e+00 0.0000000000e+00 0.0000000000e+00
     1      1      2
 1  1  1    -2.2453748632e+00
 1  1  2    -4.0539847374e+00
 1  1  3    -4.0539847374e+00
 1  2  1    -4.5968728058e+00
 1  2  2    -4.5968728058e+00
 1  2  3    -5.8666314400e+00
 1  3  1    -4.5968728058e+00
 1  3  2    -5.8666314400e+00
 1  3  3    -4.5968728058e+00
 2  1  1    -4.5968728058e+00
 2  1  2    -4.5968728058e+00
 2  1  3    -5.8666314400e+00
 2  2  1    -4.0539847374e+00
 2  2  2    -2.2453748632e+00
 2  2  3    -4.0539847374e+00
 2  3  1    -5.8666314400e+00
 2  3  2    -4.5968728058e+00
 2  3  3    -4.5968728058e+00
 3  1  1    -4.5968728058e+00
 3  1  2    -5.8666314400e+00
 3  1  3    -4.5968728058e+00
 3  2  1    -5.8666314400e+00
 3  2  2    -4.5968728058e+00
 3  2  3    -4.5968728058e+00
 3  3  1    -4.0539847374e+00
 3  3  2    -4.0539847374e+00
 3  3  3    -2.2453748632e+00

    3
0.0000000000e+00 0.0000000000e+00 0.0000000000e+00
0.0000000000e+00 2.8575077560e+00 2.8575077560e+00
     1      1      1
 1  1  1     3.1644446884e-02
 1  1  2    -5.0134218863e-02
 1  1  3    -5.0134218863e-02
 1  2  1    -6.8222767677e-02
 1  2  2    -5.3953362098e-02
 1  2  3     7.5473241367e-02
 1  3  1    -6.8222767677e-02
 1  3  2     7.5473241367e-02
 1  3  3    -5.3953362098e-02
 2  1  1    -6.8222767677e-02
 2  1  2    -5.3953362098e-02
 2  1  3     7.5473241367e-02
 2  2  1    -1.7974491090e-01
 2  2  2    -1.7444992624e-01
 2  2  3    -1.3148991691e-01
 2  3  1    -1.5648922925e-01
 2  3  2    -1.7569548315e-01
 2  3  3    -1.7569548315e-01
 3  1  1    -6.8222767677e-02
 3  1  2     7.5473241367e-02
 3  1  3    -5.3953362098e-02
 3  2  1    -1.5648922925e-01
 3  2  2    -1.7569548315e-01
 3  2  3    -1.7569548315e-01
 3  3  1    -1.7974491090e-01
 3  3  2    -1.3148991691e-01
 3  3  3    -1.7444992624e-01

    4
0.0000000000e+00 0.0000000000e+00 0.0000000000e+00
0.0000000000e+00 -2.8575077560e+00 -2.8575077560e+00
     1      1      1
 1  1  1     3.1644446884e-02
 1  1  2     5.0134218863e-02
 1  1  3     5.0134218863e-02
 1  2  1     6.8222767677e-02
 1  2  2    -5.3953362098e-02
 1  2  3     7.5473241367e-02
 1  3  1     6.8222767677e-02
 1  3  2     7.5473241367e-02
 1  3  3    -5.3953362098e-02
 2  1  1     6.8222767677e-02
 2  1  2    -5.3953362098e-02
 2  1  3     7.5473241367e-02
 2  2  1    -1.7974491090e-01
 2  2  2     1.7444992624e-01
 2  2  3     1.3148991691e-01
 2  3  1    -1.5648922925e-01
 2  3  2     1.7569548315e-01
 2  3  3     1.7569548315e-01
 3  1  1     6.8222767677e-02
 3  1  2     7.5473241367e-02
 3  1  3    -5.3953362098e-02
 3  2  1    -1.5648922925e-01
 3  2  2     1.7569548315e-01
 3  2  3     1.7569548315e-01
 3  3  1    -1.7974491090e-01
 3  3  2     1.3148991691e-01
 3  3  3     1.7444992624e-01

    5
0.0000000000e+00 0.0000000000e+00 0.0000000000e+00
0.0000000000e+00 -2.8575077560e+00 -2.8575077560e+00
     1      1      2
 1  1  1    -2.2453748632e+00
 1  1  2     4.0539847374e+00
 1  1  3     4.0539847374e+00
 1  2  1     4.5968728058e+00
 1  2  2    -4.5968728058e+00
 1  2  3    -5.8666314400e+00
 1  3  1     4.5968728058e+00
 1  3  2    -5.8666314400e+00
 1  3  3    -4.5968728058e+00
 2  1  1     4.5968728058e+00
 2  1  2    -4.5968728058e+00
 2  1  3    -5.8666314400e+00
 2  2  1    -4.0539847374e+00
 2  2  2     2.2453748632e+00
 2  2  3     4.0539847374e+00
 2  3  1    -5.8666314400e+00
 2  3  2     4.5968728058e+00
 2  3  3     4.5968728058e+00
 3  1  1     4.5968728058e+00
 3  1  2    -5.8666314400e+00
 3  1  3    -4.5968728058e+00
 3  2  1    -5.8666314400e+00
 3  2  2     4.5968728058e+00
 3  2  3     4.5968728058e+00
 3  3  1    -4.0539847374e+00
 3  3  2     4.0539847374e+00
 3  3  3     2.2453748632e+00

    6
0.0000000000e+00 0.0000000000e+00 0.0000000000e+00
2.8575077560e+00 0.0000000000e+00 2.8575077560e+00
     1      1      1
 1  1  1    -1.7444992624e-01
 1  1  2    -1.7974491090e-01
 1  1  3    -1.3148991691e-01
 1  2  1    -5.3953362098e-02
 1  2  2    -6.8222767677e-02
 1  2  3     7.5473241367e-02
 1  3  1    -1.7569548315e-01
 1  3  2    -1.5648922925e-01
 1  3  3    -1.7569548315e-01
 2  1  1    -5.3953362098e-02
 2  1  2    -6.8222767677e-02
 2  1  3     7.5473241367e-02
 2  2  1    -5.0134218863e-02
 2  2  2     3.1644446884e-02
 2  2  3    -5.0134218863e-02
 2  3  1     7.5473241367e-02
 2  3  2    -6.8222767677e-02
 2  3  3    -5.3953362098e-02
 3  1  1    -1.7569548315e-01
 3  1  2    -1.5648922925e-01
 3  1  3    -1.7569548315e-01
 3  2  1     7.5473241367e-02
 3  2  2    -6.8222767677e-02
 3  2  3    -5.3953362098e-02
 3  3  1    -1.3148991691e-01
 3  3  2    -1.7974491090e-01
 3  3  3    -1.7444992624e-01

    7
0.0000000000e+00 0.0000000000e+00 0.0000000000e+00
2.8575077560e+00 -2.8575077560e+00 0.0000000000e+00
     1      1      1
 1  1  1    -1.7444992624e-01
 1  1  2     1.3148991691e-01
 1  1  3     1.7974491090e-01
 1  2  1     1.7569548315e-01
 1  2  2    -1.7569548315e-01
 1  2  3    -1.5648922925e-01
 1  3  1     5.3953362098e-02
 1  3  2     7.5473241367e-02
 1  3  3    -6.8222767677e-02
 2  1  1     1.7569548315e-01
 2  1  2    -1.7569548315e-01
 2  1  3    -1.5648922925e-01
 2  2  1    -1.3148991691e-01
 2  2  2     1.7444992624e-01
 2  2  3     1.7974491090e-01
 2  3  1     7.5473241367e-02
 2  3  2     5.3953362098e-02
 2  3  3     6.8222767677e-02
 3  1  1     5.3953362098e-02
 3  1  2     7.5473241367e-02
 3  1  3    -6.8222767677e-02
 3  2  1     7.5473241367e-02
 3  2  2     5.3953362098e-02
 3  2  3     6.8222767677e-02
 3  3  1    -5.0134218863e-02
 3  3  2     5.0134218863e-02
 3  3  3    -3.1644446884e-02

    8
0.0000000000e+00 0.0000000000e+00 0.0000000000e+00
2.8575077560e+00 -2.8575077560e+00 0.0000000000e+00
     1      1      2
 1  1  1     2.4322409579e-02
 1  1  2    -1.5446267887e-03
 1  1  3     1.5446267887e-03
 1  2  1    -1.4220320372e-03
 1  2  2     4.9035453500e-03
 1  2  3    -1.4849365545e-02
 1  3  1     1.4220320372e-03
 1  3  2    -1.4849365545e-02
 1  3  3     4.9035453500e-03
 2  1  1    -1.4220320372e-03
 2  1  2     4.9035453500e-03
 2  1  3    -1.4849365545e-02
 2  2  1     2.1704910554e-02
 2  2  2    -4.3565399196e-02
 2  2  3     7.7491658967e-02
 2  3  1     3.2346622871e-02
 2  3  2    -9.0774353334e-02
 2  3  3     9.0774353334e-02
 3  1  1     1.4220320372e-03
 3  1  2    -1.4849365545e-02
 3  1  3     4.9035453500e-03
 3  2  1     3.2346622871e-02
 3  2  2    -9.0774353334e-02
 3  2  3     9.0774353334e-02
 3  3  1     2.1704910554e-02
 3  3  2    -7.7491658967e-02
 3  3  3     4.3565399196e-02

    9
0.0000000000e+00 0.0000000000e+00 0.0000000000e+00
-2.8575077560e+00 0.0000000000e+00 -2.8575077560e+00
     1      1      1
 1  1  1     1.7444992624e-01
 1  1  2    -1.7974491090e-01
 1  1  3     1.3148991691e-01
 1  2  1    -5.3953362098e-02
 1  2  2     6.8222767677e-02
 1  2  3     7.5473241367e-02
 1  3  1     1.7569548315e-01
 1  3  2    -1.5648922925e-01
 1  3  3     1.7569548315e-01
 2  1  1    -5.3953362098e-02
 2  1  2     6.8222767677e-02
 2  1  3     7.5473241367e-02
 2  2  1     5.0134218863e-02
 2  2  2     3.1644446884e-02
 2  2  3     5.0134218863e-02
 2  3  1     7.5473241367e-02
 2  3  2     6.8222767677e-02
 2  3  3    -5.3953362098e-02
 3  1  1     1.7569548315e-01
 3  1  2    -1.5648922925e-01
 3  1  3     1.7569548315e-01
 3  2  1     7.5473241367e-02
 3  2  2     6.8222767677e-02
 3  2  3    -5.3953362098e-02
 3  3  1     1.3148991691e-01
 3  3  2    -1.7974491090e-01
 3  3  3     1.7444992624e-01

   10
0.0000000000e+00 0.0000000000e+00 0.0000000000e+00
-2.8575077560e+00 0.0000000000e+00 -2.8575077560e+00
     1      1      2
 1  1  1     2.2453748632e+00
 1  1  2    -4.0539847374e+00
 1  1  3     4.0539847374e+00
 1  2  1    -4.5968728058e+00
 1  2  2     4.5968728058e+00
 1  2  3    -5.8666314400e+00
 1  3  1     4.5968728058e+00
 1  3  2    -5.8666314400e+00
 1  3  3     4.5968728058e+00
 2  1  1    -4.5968728058e+00
 2  1  2     4.5968728058e+00
 2  1  3    -5.8666314400e+00
 2  2  1     4.0539847374e+00
 2  2  2    -2.2453748632e+00
 2  2  3     4.0539847374e+00
 2  3  1    -5.8666314400e+00
 2  3  2     4.5968728058e+00
 2  3  3    -4.5968728058e+00
 3  1  1     4.5968728058e+00
 3  1  2    -5.8666314400e+00
 3  1  3     4.5968728058e+00
 3  2  1    -5.8666314400e+00
 3  2  2     4.5968728058e+00
 3  2  3    -4.5968728058e+00
 3  3  1     4.0539847374e+00
 3  3  2    -4.0539847374e+00
 3  3  3     2.2453748632e+00

   11
0.0000000000e+00 0.0000000000e+00 0.0000000000e+00
-2.8575077560e+00 2.8575077560e+00 0.0000000000e+00
     1      1      1
 1  1  1     1.7444992624e-01
 1  1  2    -1.3148991691e-01
 1  1  3     1.7974491090e-01
 1  2  1    -1.7569548315e-01
 1  2  2     1.7569548315e-01
 1  2  3    -1.5648922925e-01
 1  3  1     5.3953362098e-02
 1  3  2     7.5473241367e-02
 1  3  3     6.8222767677e-02
 2  1  1    -1.7569548315e-01
 2  1  2     1.7569548315e-01
 2  1  3    -1.5648922925e-01
 2  2  1     1.3148991691e-01
 2  2  2    -1.7444992624e-01
 2  2  3     1.7974491090e-01
 2  3  1     7.5473241367e-02
 2  3  2     5.3953362098e-02
 2  3  3    -6.8222767677e-02
 3  1  1     5.3953362098e-02
 3  1  2     7.5473241367e-02
 3  1  3     6.8222767677e-02
 3  2  1     7.5473241367e-02
 3  2  2     5.3953362098e-02
 3  2  3    -6.8222767677e-02
 3  3  1     5.0134218863e-02
 3  3  2    -5.0134218863e-02
 3  3  3    -3.1644446884e-02

   12
0.0000000000e+00 0.0000000000e+00 0.0000000000e+00
-2.8575077560e+00 2.8575077560e+00 0.0000000000e+00
     1      1      2
 1  1  1    -4.3565399196e-02
 1  1  2     2.1704910554e-02
 1  1  3     7.7491658967e-02
 1  2  1     4.9035453500e-03
 1  2  2    -1.4220320372e-03
 1  2  3    -1.4849365545e-02
 1  3  1    -9.0774353334e-02
 1  3  2     3.2346622871e-02
 1  3  3     9.0774353334e-02
 2  1  1     4.9035453500e-03
 2  1  2    -1.4220320372e-03
 2  1  3    -1.4849365545e-02
 2  2  1    -1.5446267887e-03
 2  2  2     2.4322409579e-02
 2  2  3     1.5446267887e-03
 2  3  1    -1.4849365545e-02
 2  3  2     1.4220320372e-03
 2  3  3     4.9035453500e-03
 3  1  1    -9.0774353334e-02
 3  1  2     3.2346622871e-02
 3  1  3     9.0774353334e-02
 3  2  1    -1.4849365545e-02
 3  2  2     1.4220320372e-03
 3  2  3     4.9035453500e-03
 3  3  1    -7.7491658967e-02
 3  3  2     2.1704910554e-02
 3  3  3     4.3565399196e-02

   13
0.0000000000e+00 0.0000000000e+00 0.0000000000e+00
-2.8575077560e+00 -2.8575077560e+00 -5.7150155120e+00
     1      1      2
 1  1  1    -4.3565399196e-02
 1  1  2    -7.7491658967e-02
 1  1  3    -2.1704910554e-02
 1  2  1     9.0774353334e-02
 1  2  2     9.0774353334e-02
 1  2  3     3.2346622871e-02
 1  3  1    -4.9035453500e-03
 1  3  2    -1.4849365545e-02
 1  3  3    -1.4220320372e-03
 2  1  1     9.0774353334e-02
 2  1  2     9.0774353334e-02
 2  1  3     3.2346622871e-02
 2  2  1    -7.7491658967e-02
 2  2  2    -4.3565399196e-02
 2  2  3    -2.1704910554e-02
 2  3  1    -1.4849365545e-02
 2  3  2    -4.9035453500e-03
 2  3  3    -1.4220320372e-03
 3  1  1    -4.9035453500e-03
 3  1  2    -1.4849365545e-02
 3  1  3    -1.4220320372e-03
 3  2  1    -1.4849365545e-02
 3  2  2    -4.9035453500e-03
 3  2  3    -1.4220320372e-03
 3  3  1    -1.5446267887e-03
 3  3  2    -1.5446267887e-03
 3  3  3    -2.4322409579e-02

   14
0.0000000000e+00 0.0000000000e+00 0.0000000000e+00
2.8575077560e+00 2.8575077560e+00 0.0000000000e+00
     1      1      1
 1  1  1    -1.7444992624e-01
 1  1  2    -1.3148991691e-01
 1  1  3    -1.7974491090e-01
 1  2  1    -1.7569548315e-01
 1  2  2    -1.7569548315e-01
 1  2  3    -1.5648922925e-01
 1  3  1    -5.3953362098e-02
 1  3  2     7.5473241367e-02
 1  3  3    -6.8222767677e-02
 2  1  1    -1.7569548315e-01
 2  1  2    -1.7569548315e-01
 2  1  3    -1.5648922925e-01
 2  2  1    -1.3148991691e-01
 2  2  2    -1.7444992624e-01
 2  2  3    -1.7974491090e-01
 2  3  1     7.5473241367e-02
 2  3  2    -5.3953362098e-02
 2  3  3    -6.8222767677e-02
 3  1  1    -5.3953362098e-02
 3  1  2     7.5473241367e-02
 3  1  3    -6.8222767677e-02
 3  2  1     7.5473241367e-02
 3  2  2    -5.3953362098e-02
 3  2  3    -6.8222767677e-02
 3  3  1    -5.0134218863e-02
 3  3  2    -5.0134218863e-02
 3  3  3     3.1644446884e-02

   15
0.0000000000e+00 0.0000000000e+00 0.0000000000e+00
2.8575077560e+00 0.0000000000e+00 -2.8575077560e+00
     1      1      1
 1  1  1    -1.7444992624e-01
 1  1  2     1.7974491090e-01
 1  1  3     1.3148991691e-01
 1  2  1     5.3953362098e-02
 1  2  2    -6.8222767677e-02
 1  2  3     7.5473241367e-02
 1  3  1     1.7569548315e-01
 1  3  2    -1.5648922925e-01
 1  3  3    -1.7569548315e-01
 2  1  1     5.3953362098e-02
 2  1  2    -6.8222767677e-02
 2  1  3     7.5473241367e-02
 2  2  1    -5.0134218863e-02
 2  2  2    -3.1644446884e-02
 2  2  3     5.0134218863e-02
 2  3  1     7.5473241367e-02
 2  3  2     6.8222767677e-02
 2  3  3     5.3953362098e-02
 3  1  1     1.7569548315e-01
 3  1  2    -1.5648922925e-01
 3  1  3    -1.7569548315e-01
 3  2  1     7.5473241367e-02
 3  2  2     6.8222767677e-02
 3  2  3     5.3953362098e-02
 3  3  1    -1.3148991691e-01
 3  3  2     1.7974491090e-01
 3  3  3     1.7444992624e-01

   16
0.0000000000e+00 0.0000000000e+00 0.0000000000e+00
2.8575077560e+00 0.0000000000e+00 -2.8575077560e+00
     1      1      2
 1  1  1     2.4322409579e-02
 1  1  2     1.5446267887e-03
 1  1  3    -1.5446267887e-03
 1  2  1     1.4220320372e-03
 1  2  2     4.9035453500e-03
 1  2  3    -1.4849365545e-02
 1  3  1    -1.4220320372e-03
 1  3  2    -1.4849365545e-02
 1  3  3     4.9035453500e-03
 2  1  1     1.4220320372e-03
 2  1  2     4.9035453500e-03
 2  1  3    -1.4849365545e-02
 2  2  1     2.1704910554e-02
 2  2  2     4.3565399196e-02
 2  2  3    -7.7491658967e-02
 2  3  1     3.2346622871e-02
 2  3  2     9.0774353334e-02
 2  3  3    -9.0774353334e-02
 3  1  1    -1.4220320372e-03
 3  1  2    -1.4849365545e-02
 3  1  3     4.9035453500e-03
 3  2  1     3.2346622871e-02
 3  2  2     9.0774353334e-02
 3  2  3    -9.0774353334e-02
 3  3  1     2.1704910554e-02
 3  3  2     7.7491658967e-02
 3  3  3    -4.3565399196e-02

   17
0.0000000000e+00 0.0000000000e+00 0.0000000000e+00
0.0000000000e+00 2.8575077560e+00 -2.8575077560e+00
     1      1      1
 1  1  1    -3.1644446884e-02
 1  1  2    -5.0134218863e-02
 1  1  3     5.0134218863e-02
 1  2  1    -6.8222767677e-02
 1  2  2     5.3953362098e-02
 1  2  3     7.5473241367e-02
 1  3  1     6.8222767677e-02
 1  3  2     7.5473241367e-02
 1  3  3     5.3953362098e-02
 2  1  1    -6.8222767677e-02
 2  1  2     5.3953362098e-02
 2  1  3     7.5473241367e-02
 2  2  1     1.7974491090e-01
 2  2  2    -1.7444992624e-01
 2  2  3     1.3148991691e-01
 2  3  1    -1.5648922925e-01
 2  3  2     1.7569548315e-01
 2  3  3    -1.7569548315e-01
 3  1  1     6.8222767677e-02
 3  1  2     7.5473241367e-02
 3  1  3     5.3953362098e-02
 3  2  1    -1.5648922925e-01
 3  2  2     1.7569548315e-01
 3  2  3    -1.7569548315e-01
 3  3  1     1.7974491090e-01
 3  3  2    -1.3148991691e-01
 3  3  3     1.7444992624e-01

   18
0.0000000000e+00 0.0000000000e+00 0.0000000000e+00
0.0000000000e+00 2.8575077560e+00 -2.8575077560e+00
     1      1      2
 1  1  1     4.3565399196e-02
 1  1  2     2.1704910554e-02
 1  1  3    -7.7491658967e-02
 1  2  1     4.9035453500e-03
 1  2  2     1.4220320372e-03
 1  2  3    -1.4849365545e-02
 1  3  1     9.0774353334e-02
 1  3  2     3.2346622871e-02
 1  3  3    -9.0774353334e-02
 2  1  1     4.9035453500e-03
 2  1  2     1.4220320372e-03
 2  1  3    -1.4849365545e-02
 2  2  1     1.5446267887e-03
 2  2  2     2.4322409579e-02
 2  2  3    -1.5446267887e-03
 2  3  1    -1.4849365545e-02
 2  3  2    -1.4220320372e-03
 2  3  3     4.9035453500e-03
 3  1  1     9.0774353334e-02
 3  1  2     3.2346622871e-02
 3  1  3    -9.0774353334e-02
 3  2  1    -1.4849365545e-02
 3  2  2    -1.4220320372e-03
 3  2  3     4.9035453500e-03
 3  3  1     7.7491658967e-02
 3  3  2     2.1704910554e-02
 3  3  3    -4.3565399196e-02

   19
0.0000000000e+00 0.0000000000e+00 0.0000000000e+00
0.0000000000e+00 0.0000000000e+00 -5.7150155120e+00
     1      1      2
 1  1  1     4.3565399196e-02
 1  1  2     7.7491658967e-02
 1  1  3    -2.1704910554e-02
 1  2  1    -9.0774353334e-02
 1  2  2    -9.0774353334e-02
 1  2  3     3.2346622871e-02
 1  3  1    -4.9035453500e-03
 1  3  2    -1.4849365545e-02
 1  3  3     1.4220320372e-03
 2  1  1    -9.0774353334e-02
 2  1  2    -9.0774353334e-02
 2  1  3     3.2346622871e-02
 2  2  1     7.7491658967e-02
 2  2  2     4.3565399196e-02
 2  2  3    -2.1704910554e-02
 2  3  1    -1.4849365545e-02
 2  3  2    -4.9035453500e-03
 2  3  3     1.4220320372e-03
 3  1  1    -4.9035453500e-03
 3  1  2    -1.4849365545e-02
 3  1  3     1.4220320372e-03
 3  2  1    -1.4849365545e-02
 3  2  2    -4.9035453500e-03
 3  2  3     1.4220320372e-03
 3  3  1     1.5446267887e-03
 3  3  2     1.5446267887e-03
 3  3  3    -2.4322409579e-02

   20
0.0000000000e+00 0.0000000000e+00 0.0000000000e+00
-2.8575077560e+00 -2.8575077560e+00 0.0000000000e+00
     1      1      1
 1  1  1     1.7444992624e-01
 1  1  2     1.3148991691e-01
 1  1  3    -1.7974491090e-01
 1  2  1     1.7569548315e-01
 1  2  2     1.7569548315e-01
 1  2  3    -1.5648922925e-01
 1  3  1    -5.3953362098e-02
 1  3  2     7.5473241367e-02
 1  3  3     6.8222767677e-02
 2  1  1     1.7569548315e-01
 2  1  2     1.7569548315e-01
 2  1  3    -1.5648922925e-01
 2  2  1     1.3148991691e-01
 2  2  2     1.7444992624e-01
 2  2  3    -1.7974491090e-01
 2  3  1     7.5473241367e-02
 2  3  2    -5.3953362098e-02
 2  3  3     6.8222767677e-02
 3  1  1    -5.3953362098e-02
 3  1  2     7.5473241367e-02
 3  1  3     6.8222767677e-02
 3  2  1     7.5473241367e-02
 3  2  2    -5.3953362098e-02
 3  2  3     6.8222767677e-02
 3  3  1     5.0134218863e-02
 3  3  2     5.0134218863e-02
 3  3  3     3.1644446884e-02

   21
0.0000000000e+00 0.0000000000e+00 0.0000000000e+00
-2.8575077560e+00 -2.8575077560e+00 0.0000000000e+00
     1      1      2
 1  1  1     2.2453748632e+00
 1  1  2     4.0539847374e+00
 1  1  3    -4.0539847374e+00
 1  2  1     4.5968728058e+00
 1  2  2     4.5968728058e+00
 1  2  3    -5.8666314400e+00
 1  3  1    -4.5968728058e+00
 1  3  2    -5.8666314400e+00
 1  3  3     4.5968728058e+00
 2  1  1     4.5968728058e+00
 2  1  2     4.5968728058e+00
 2  1  3    -5.8666314400e+00
 2  2  1     4.0539847374e+00
 2  2  2     2.2453748632e+00
 2  2  3    -4.0539847374e+00
 2  3  1    -5.8666314400e+00
 2  3  2    -4.5968728058e+00
 2  3  3     4.5968728058e+00
 3  1  1    -4.5968728058e+00
 3  1  2    -5.8666314400e+00
 3  1  3     4.5968728058e+00
 3  2  1    -5.8666314400e+00
 3  2  2    -4.5968728058e+00
 3  2  3     4.5968728058e+00
 3  3  1     4.0539847374e+00
 3  3  2     4.0539847374e+00
 3  3  3    -2.2453748632e+00

   22
0.0000000000e+00 0.0000000000e+00 0.0000000000e+00
-2.8575077560e+00 0.0000000000e+00 2.8575077560e+00
     1      1      1
 1  1  1     1.7444992624e-01
 1  1  2     1.7974491090e-01
 1  1  3    -1.3148991691e-01
 1  2  1     5.3953362098e-02
 1  2  2     6.8222767677e-02
 1  2  3     7.5473241367e-02
 1  3  1    -1.7569548315e-01
 1  3  2    -1.5648922925e-01
 1  3  3     1.7569548315e-01
 2  1  1     5.3953362098e-02
 2  1  2     6.8222767677e-02
 2  1  3     7.5473241367e-02
 2  2  1     5.0134218863e-02
 2  2  2    -3.1644446884e-02
 2  2  3    -5.0134218863e-02
 2  3  1     7.5473241367e-02
 2  3  2    -6.8222767677e-02
 2  3  3     5.3953362098e-02
 3  1  1    -1.7569548315e-01
 3  1  2    -1.5648922925e-01
 3  1  3     1.7569548315e-01
 3  2  1     7.5473241367e-02
 3  2  2    -6.8222767677e-02
 3  2  3     5.3953362098e-02
 3  3  1     1.3148991691e-01
 3  3  2     1.7974491090e-01
 3  3  3    -1.7444992624e-01

   23
0.0000000000e+00 0.0000000000e+00 0.0000000000e+00
-2.8575077560e+00 0.0000000000e+00 2.8575077560e+00
     1      1      2
 1  1  1    -4.3565399196e-02
 1  1  2     7.7491658967e-02
 1  1  3     2.1704910554e-02
 1  2  1    -9.0774353334e-02
 1  2  2     9.0774353334e-02
 1  2  3     3.2346622871e-02
 1  3  1     4.9035453500e-03
 1  3  2    -1.4849365545e-02
 1  3  3    -1.4220320372e-03
 2  1  1    -9.0774353334e-02
 2  1  2     9.0774353334e-02
 2  1  3     3.2346622871e-02
 2  2  1    -7.7491658967e-02
 2  2  2     4.3565399196e-02
 2  2  3     2.1704910554e-02
 2  3  1    -1.4849365545e-02
 2  3  2     4.9035453500e-03
 2  3  3     1.4220320372e-03
 3  1  1     4.9035453500e-03
 3  1  2    -1.4849365545e-02
 3  1  3    -1.4220320372e-03
 3  2  1    -1.4849365545e-02
 3  2  2     4.9035453500e-03
 3  2  3     1.4220320372e-03
 3  3  1    -1.5446267887e-03
 3  3  2     1.5446267887e-03
 3  3  3     2.4322409579e-02

   24
0.0000000000e+00 0.0000000000e+00 0.0000000000e+00
-2.8575077560e+00 -5.7150155120e+00 -2.8575077560e+00
     1      1      2
 1  1  1    -4.3565399196e-02
 1  1  2    -2.1704910554e-02
 1  1  3    -7.7491658967e-02
 1  2  1    -4.9035453500e-03
 1  2  2    -1.4220320372e-03
 1  2  3    -1.4849365545e-02
 1  3  1     9.0774353334e-02
 1  3  2     3.2346622871e-02
 1  3  3     9.0774353334e-02
 2  1  1    -4.9035453500e-03
 2  1  2    -1.4220320372e-03
 2  1  3    -1.4849365545e-02
 2  2  1    -1.5446267887e-03
 2  2  2    -2.4322409579e-02
 2  2  3    -1.5446267887e-03
 2  3  1    -1.4849365545e-02
 2  3  2    -1.4220320372e-03
 2  3  3    -4.9035453500e-03
 3  1  1     9.0774353334e-02
 3  1  2     3.2346622871e-02
 3  1  3     9.0774353334e-02
 3  2  1    -1.4849365545e-02
 3  2  2    -1.4220320372e-03
 3  2  3    -4.9035453500e-03
 3  3  1    -7.7491658967e-02
 3  3  2    -2.1704910554e-02
 3  3  3    -4.3565399196e-02

   25
0.0000000000e+00 0.0000000000e+00 0.0000000000e+00
0.0000000000e+00 -2.8575077560e+00 2.8575077560e+00
     1      1      1
 1  1  1    -3.1644446884e-02
 1  1  2     5.0134218863e-02
 1  1  3    -5.0134218863e-02
 1  2  1     6.8222767677e-02
 1  2  2     5.3953362098e-02
 1  2  3     7.5473241367e-02
 1  3  1    -6.8222767677e-02
 1  3  2     7.5473241367e-02
 1  3  3     5.3953362098e-02
 2  1  1     6.8222767677e-02
 2  1  2     5.3953362098e-02
 2  1  3     7.5473241367e-02
 2  2  1     1.7974491090e-01
 2  2  2     1.7444992624e-01
 2  2  3    -1.3148991691e-01
 2  3  1    -1.5648922925e-01
 2  3  2    -1.7569548315e-01
 2  3  3     1.7569548315e-01
 3  1  1    -6.8222767677e-02
 3  1  2     7.5473241367e-02
 3  1  3     5.3953362098e-02
 3  2  1    -1.5648922925e-01
 3  2  2    -1.7569548315e-01
 3  2  3     1.7569548315e-01
 3  3  1     1.7974491090e-01
 3  3  2     1.3148991691e-01
 3  3  3    -1.7444992624e-01

   26
0.0000000000e+00 0.0000000000e+00 0.0000000000e+00
0.0000000000e+00 -2.8575077560e+00 2.8575077560e+00
     1      1      2
 1  1  1     4.3565399196e-02
 1  1  2    -7.7491658967e-02
 1  1  3     2.1704910554e-02
 1  2  1     9.0774353334e-02
 1  2  2    -9.0774353334e-02
 1  2  3     3.2346622871e-02
 1  3  1     4.9035453500e-03
 1  3  2    -1.4849365545e-02
 1  3  3     1.4220320372e-03
 2  1  1     9.0774353334e-02
 2  1  2    -9.0774353334e-02
 2  1  3     3.2346622871e-02
 2  2  1     7.7491658967e-02
 2  2  2    -4.3565399196e-02
 2  2  3     2.1704910554e-02
 2  3  1    -1.4849365545e-02
 2  3  2     4.9035453500e-03
 2  3  3    -1.4220320372e-03
 3  1  1     4.9035453500e-03
 3  1  2    -1.4849365545e-02
 3  1  3     1.4220320372e-03
 3  2  1    -1.4849365545e-02
 3  2  2     4.9035453500e-03
 3  2  3    -1.4220320372e-03
 3  3  1     1.5446267887e-03
 3  3  2    -1.5446267887e-03
 3  3  3     2.4322409579e-02

   27
0.0000000000e+00 0.0000000000e+00 0.0000000000e+00
0.0000000000e+00 -5.7150155120e+00 0.0000000000e+00
     1      1      2
 1  1  1     4.3565399196e-02
 1  1  2    -2.1704910554e-02
 1  1  3     7.7491658967e-02
 1  2  1    -4.9035453500e-03
 1  2  2     1.4220320372e-03
 1  2  3    -1.4849365545e-02
 1  3  1    -9.0774353334e-02
 1  3  2     3.2346622871e-02
 1  3  3    -9.0774353334e-02
 2  1  1    -4.9035453500e-03
 2  1  2     1.4220320372e-03
 2  1  3    -1.4849365545e-02
 2  2  1     1.5446267887e-03
 2  2  2    -2.4322409579e-02
 2  2  3     1.5446267887e-03
 2  3  1    -1.4849365545e-02
 2  3  2     1.4220320372e-03
 2  3  3    -4.9035453500e-03
 3  1  1    -9.0774353334e-02
 3  1  2     3.2346622871e-02
 3  1  3    -9.0774353334e-02
 3  2  1    -1.4849365545e-02
 3  2  2     1.4220320372e-03
 3  2  3    -4.9035453500e-03
 3  3  1     7.7491658967e-02
 3  3  2    -2.1704910554e-02
 3  3  3     4.3565399196e-02

   28
0.0000000000e+00 0.0000000000e+00 0.0000000000e+00
-5.7150155120e+00 -2.8575077560e+00 -2.8575077560e+00
     1      1      2
 1  1  1    -2.4322409579e-02
 1  1  2    -1.5446267887e-03
 1  1  3    -1.5446267887e-03
 1  2  1    -1.4220320372e-03
 1  2  2    -4.9035453500e-03
 1  2  3    -1.4849365545e-02
 1  3  1    -1.4220320372e-03
 1  3  2    -1.4849365545e-02
 1  3  3    -4.9035453500e-03
 2  1  1    -1.4220320372e-03
 2  1  2    -4.9035453500e-03
 2  1  3    -1.4849365545e-02
 2  2  1    -2.1704910554e-02
 2  2  2    -4.3565399196e-02
 2  2  3    -7.7491658967e-02
 2  3  1     3.2346622871e-02
 2  3  2     9.0774353334e-02
 2  3  3     9.0774353334e-02
 3  1  1    -1.4220320372e-03
 3  1  2    -1.4849365545e-02
 3  1  3    -4.9035453500e-03
 3  2  1     3.2346622871e-02
 3  2  2     9.0774353334e-02
 3  2  3     9.0774353334e-02
 3  3  1    -2.1704910554e-02
 3  3  2    -7.7491658967e-02
 3  3  3    -4.3565399196e-02

   29
0.0000000000e+00 0.0000000000e+00 0.0000000000e+00
-5.7150155120e+00 0.0000000000e+00 0.0000000000e+00
     1      1      2
 1  1  1    -2.4322409579e-02
 1  1  2     1.5446267887e-03
 1  1  3     1.5446267887e-03
 1  2  1     1.4220320372e-03
 1  2  2    -4.9035453500e-03
 1  2  3    -1.4849365545e-02
 1  3  1     1.4220320372e-03
 1  3  2    -1.4849365545e-02
 1  3  3    -4.9035453500e-03
 2  1  1     1.4220320372e-03
 2  1  2    -4.9035453500e-03
 2  1  3    -1.4849365545e-02
 2  2  1    -2.1704910554e-02
 2  2  2     4.3565399196e-02
 2  2  3     7.7491658967e-02
 2  3  1     3.2346622871e-02
 2  3  2    -9.0774353334e-02
 2  3  3    -9.0774353334e-02
 3  1  1     1.4220320372e-03
 3  1  2    -1.4849365545e-02
 3  1  3    -4.9035453500e-03
 3  2  1     3.2346622871e-02
 3  2  2    -9.0774353334e-02
 3  2  3    -9.0774353334e-02
 3  3  1    -2.1704910554e-02
 3  3  2     7.7491658967e-02
 3  3  3     4.3565399196e-02

   30
0.0000000000e+00 0.0000000000e+00 0.0000000000e+00
0.0000000000e+00 0.0000000000e+00 0.0000000000e+00
     1      2      1
 1  1  1    -2.2453748632e+00
 1  1  2    -4.5968728058e+00
 1  1  3    -4.5968728058e+00
 1  2  1    -4.0539847374e+00
 1  2  2    -4.5968728058e+00
 1  2  3    -5.8666314400e+00
 1  3  1    -4.0539847374e+00
 1  3  2    -5.8666314400e+00
 1  3  3    -4.5968728058e+00
 2  1  1    -4.5968728058e+00
 2  1  2    -4.0539847374e+00
 2  1  3    -5.8666314400e+00
 2  2  1    -4.5968728058e+00
 2  2  2    -2.2453748632e+00
 2  2  3    -4.5968728058e+00
 2  3  1    -5.8666314400e+00
 2  3  2    -4.0539847374e+00
 2  3  3    -4.5968728058e+00
 3  1  1    -4.5968728058e+00
 3  1  2    -5.8666314400e+00
 3  1  3    -4.0539847374e+00
 3  2  1    -5.8666314400e+00
 3  2  2    -4.5968728058e+00
 3  2  3    -4.0539847374e+00
 3  3  1    -4.5968728058e+00
 3  3  2    -4.5968728058e+00
 3  3  3    -2.2453748632e+00

   31
0.0000000000e+00 0.0000000000e+00 0.0000000000e+00
0.0000000000e+00 0.0000000000e+00 0.0000000000e+00
     1      2      2
 1  1  1     2.3666196929e+00
 1  1  2     4.1692152958e+00
 1  1  3     4.1692152958e+00
 1  2  1     4.1692152958e+00
 1  2  2     4.3753203417e+00
 1  2  3     6.1078361705e+00
 1  3  1     4.1692152958e+00
 1  3  2     6.1078361705e+00
 1  3  3     4.3753203417e+00
 2  1  1     4.3753203417e+00
 2  1  2     4.1692152958e+00
 2  1  3     6.1078361705e+00
 2  2  1     4.1692152958e+00
 2  2  2     2.3666196929e+00
 2  2  3     4.1692152958e+00
 2  3  1     6.1078361705e+00
 2  3  2     4.1692152958e+00
 2  3  3     4.3753203417e+00
 3  1  1     4.3753203417e+00
 3  1  2     6.1078361705e+00
 3  1  3     4.1692152958e+00
 3  2  1     6.1078361705e+00
 3  2  2     4.3753203417e+00
 3  2  3     4.1692152958e+00
 3  3  1     4.1692152958e+00
 3  3  2     4.1692152958e+00
 3  3  3     2.3666196929e+00

   32
0.0000000000e+00 0.0000000000e+00 0.0000000000e+00
0.0000000000e+00 2.8575077560e+00 2.8575077560e+00
     1      2      1
 1  1  1    -1.3433359293e-01
 1  1  2     0.0000000000e+00
 1  1  3     0.0000000000e+00
 1  2  1     0.0000000000e+00
 1  2  2     2.4990315453e-01
 1  2  3    -3.1806899597e-02
 1  3  1     0.0000000000e+00
 1  3  2    -3.1806899597e-02
 1  3  3     2.4990315453e-01
 2  1  1     0.0000000000e+00
 2  1  2     3.0026837233e-02
 2  1  3    -2.5487902522e-01
 2  2  1     2.4990315453e-01
 2  2  2     0.0000000000e+00
 2  2  3    -7.4878906699e-02
 2  3  1    -3.1806899597e-02
 2  3  2     0.0000000000e+00
 2  3  3     7.4878906699e-02
 3  1  1     0.0000000000e+00
 3  1  2    -2.5487902522e-01
 3  1  3     3.0026837233e-02
 3  2  1    -3.1806899597e-02