216
Time=2000100.00004691 pbc="T T T" Lattice="16.41039786 0.00000000 0.00000000 0.00000000 16.41039786 0.00000000 0.00000000 0.00000000 16.41039786" energy=-989.24712876 virial="-4.11636471 -1.53544344 6.47102846 -1.53544344 -3.44520581 -2.59618192 6.47102846 -2.59618192 -3.83552340" stress="0.00033210 -0.00034744 0.00146425 -0.00034744 0.00048397 -0.00058746 0.00146425 -0.00058746 0.00039565" Properties=species:S:1:pos:R:3:vel:R:3:forces:R:3
Si 0.58904841 0.72295723 0.83383102 0.00188869 -0.00335680 0.00163565 -0.29767061 -0.05232135 -0.23767805
Si 2.03587592 2.12092371 2.11169527 0.00112143 -0.00111802 -0.00161721 -0.62498811 0.38485636 -0.72510870
Si 0.58164034 3.32446185 3.49902737 -0.00483224 -0.00266794 0.00202897 0.13851018 0.68054573 0.12762714
Si 1.94296575 4.96202185 4.73328143 -0.00179398 0.00078932 0.00188517 -0.14266886 -1.15248089 0.23284685
Si 3.30839654 0.80626797 3.44070918 -0.00057974 0.00489226 0.00262976 1.22791158 -0.99102642 0.01476427
Si 4.64402666 2.17365996 4.78317857 0.00082348 0.00156231 0.00247104 0.74685234 -0.51018981 0.31941275
Si 3.37895289 3.50969103 0.69674462 -0.00007740 -0.00407855 -0.00098233 0.46620858 -0.92387941 -0.19742661
Si 4.83507538 4.82242366 1.96309978 -0.00082084 -0.00012763 0.00045473 -1.05058951 1.08337920 0.31373528
Si 0.69999191 0.72343990 6.10661149 0.00014441 -0.00563109 -0.00076529 -0.20148880 -0.44784357 0.41419969
Si 2.11293721 2.02945187 7.39953607 -0.00274399 0.00303151 -0.00039079 -0.30005180 0.44032736 1.09870503
Si 0.67863475 3.24977496 8.93770524 0.00189536 -0.00005337 0.00119436 0.48600782 0.86989259 -0.55828217
Si 2.00103065 4.74429278 10.33626898 0.00386702 -0.00102534 0.00030176 0.36506435 -0.58441093 -0.25071384
Si 3.34554941 0.65834078 8.95119949 -0.00573035 0.00072573 -0.00084354 0.85541740 0.03522422 -0.88974208
Si 4.78365676 1.96582033 10.30596240 -0.00213867 -0.00111431 -0.00176621 -0.24957609 0.43678711 -1.02177553
Si 3.33368317 3.57930078 6.11845344 0.00271518 -0.00321313 -0.00086739 0.26679067 0.25509221 0.19252099
Si 4.81388237 4.82037042 7.56825447 -0.00111424 0.00171019 0.00347085 -0.91362701 -0.10010719 0.20469420
Si 0.75143440 0.58984305 11.49721388 -0.00284585 0.00420494 -0.00022391 -0.40147873 -0.21297676 1.39007765
Si 1.94668793 1.95511930 13.06316928 -0.00244863 -0.00152351 -0.00091847 0.72588148 0.38875135 -0.73447337
Si 0.62928963 3.39632926 14.38093372 0.00167472 0.00420166 0.00020307 0.70680635 0.13183796 0.47583261
Si 2.10495688 4.84770459 15.72035758 -0.00016648 0.00173313 0.00109520 -0.72360247 0.13174725 -0.45574578
Si 3.38741453 0.69594409 14.43822646 -0.00061557 -0.00170610 -0.00413865 -0.74923849 -1.04211558 -0.39391356
Si 4.74632303 1.98063538 15.74507773 0.00183161 0.00057476 0.00308265 0.83060223 1.26528775 0.36708017
Si 3.46695528 3.29544510 11.63148260 0.00272957 0.00095600 0.00057109 -1.07015964 0.59337803 0.79583605
Si 4.79691696 4.69874273 13.02298709 0.00354359 0.00210640 -0.00278724 0.26811374 0.25977076 -0.42588630
Si 0.75471496 6.24605300 0.72139351 -0.00258183 0.00354002 0.00154412 0.07361766 -0.72468192 0.24362070
Si 2.13607644 7.65699516 2.07158423 -0.00290037 0.00124480 -0.00307717 -0.79203648 -0.59080038 -0.05583019
Si 0.65694336 8.89770718 3.43156033 -0.00270460 -0.00100833 -0.00007082 0.44219698 0.58335029 -0.52844349
Si 2.00871446 10.24885376 4.81405149 -0.00658408 -0.00121781 -0.00186686 -0.70885265 0.35349827 0.25567465
Si 3.38606052 6.23522039 3.42069929 -0.00399826 -0.00305622 -0.00214172 0.42486300 -0.65378490 -0.64117664
Si 4.71411471 7.52112561 4.81616773 -0.00270373 -0.00036378 -0.00363880 0.78836973 0.13007654 -0.11996620
Si 3.44291788 8.91323562 0.66583199 -0.00119032 -0.00396929 0.00000237 -0.11664628 0.53760018 -0.34171262
Si 4.69079896 10.19789541 2.20614959 0.00728632 -0.00398009 -0.00359405 0.73254084 0.56813546 -0.89156293
Si 0.63220644 6.22885807 6.19335904 -0.00497601 -0.00248849 0.00408935 0.51624960 0.08275955 0.32438331
Si 2.10166063 7.54718184 7.63334797 0.00004679 -0.00030260 0.00148544 -0.06547749 -0.20233440 -0.60424768
Si 0.64302985 8.82241201 8.96036323 -0.00509354 -0.00351222 0.00080957 0.58971012 0.06683584 0.22446275
Si 2.07380753 10.22106902 10.25728234 -0.00035917 0.00066258 -0.00012761 -0.40521201 -0.42989568 0.54499114
Si 3.41934473 6.12877192 9.02924995 -0.00012829 -0.00135256 -0.00142699 -0.15230312 -0.29036013 -0.52885174
Si 4.78973597 7.45212446 10.38106243 0.00062561 -0.00287056 -0.00574448 0.20520613 0.04611518 -0.16689470
Si 3.42683767 8.94359052 6.12149276 0.00229801 -0.00528231 -0.00039070 -0.37122023 -0.07791304 0.81450506
Si 4.73467042 10.37540416 7.49768118 -0.00119637 -0.00006234 0.00195029 0.90190142 -1.57497868 -0.30297721
Si 0.73346890 6.18300937 11.69823408 0.00309284 0.00243385 0.00051087 -0.31923756 -0.18159820 0.29195265
Si 2.11626896 7.67103833 12.98935239 -0.00256872 -0.00495657 0.00430226 -0.53195842 -0.88394257 -0.13846711
Si 0.62892608 8.95422173 14.25912511 0.00804339 0.00203454 -0.00264375 0.50186907 -0.18517376 1.06399517
Si 2.06792666 10.28829865 15.69602621 0.00236146 0.00221154 0.00448040 -0.76329452 -0.39741102 0.52502096
Si 3.44602634 6.18691768 14.24823777 0.00062753 -0.00157272 -0.00246201 -0.38937288 -0.25398112 0.45373167
Si 4.72084769 7.58844427 15.61014565 -0.00132709 0.00248459 -0.00109079 0.21026187 0.03707833 0.21415366
Si 3.49536565 8.93254646 11.65135761 0.00134329 -0.00006634 0.00224067 0.01106176 0.30157133 -0.11207887
Si 4.82050272 10.27821346 13.07944560 0.00199190 0.00099757 -0.00174474 0.61370653 0.16739243 -1.04098807
Si 0.72567424 11.70027367 0.67963125 -0.00180517 0.00072499 -0.00787788 -0.29096035 -0.18897844 -0.08105695
Si 2.04879189 13.10869153 2.04913893 0.00312470 0.00006208 -0.00443569 0.24653581 -0.48487294 0.04187179
Si 0.62422546 14.41945390 3.38028261 -0.00367697 -0.00727527 -0.00565648 0.49041195 -0.08998543 0.65886299
Si 2.06233149 15.79256864 4.79959283 0.00522081 0.00200691 0.00226535 -0.41342261 -0.82624878 -0.16487097
Si 3.30986777 11.63374865 3.49235818 -0.00392112 0.00065219 0.00307613 0.36966779 0.57353508 -0.26215564
Si 4.68249482 13.01277494 4.90929703 -0.00375902 -0.00068376 -0.00422661 0.68777206 0.08923797 -0.97779439
Si 3.43854662 14.46479928 0.69439372 -0.00236062 0.00011106 0.00438769 0.25060576 -0.41876072 -0.03014642
Si 4.82409797 15.78249979 2.12729632 0.00512081 -0.00133083 -0.00496755 -0.55594182 0.73156626 -0.38540095
Si 0.59734104 11.68221907 6.17034944 0.00263051 -0.00208534 0.00062966 1.00975941 -0.45463510 -0.09271203
Si 2.04514913 12.91274858 7.61693080 -0.00238947 0.00251043 -0.00163926 0.01693570 0.43434882 -0.37966693
Si 0.69387363 14.39815331 8.87935650 -0.00010349 -0.00040323 0.00337994 -0.08862687 -0.71828730 0.13949672
Si 2.13044141 15.59161067 10.25585608 0.00318322 -0.00106291 -0.00044803 -0.80584374 0.64071079 -0.33423917
Si 3.47787011 11.50632683 8.96504982 0.00120526 -0.00283612 -0.00226475 -0.88376038 1.27943009 -0.14092153
Si 4.85010747 12.93735166 10.18974253 -0.00110654 -0.00053599 0.00232057 0.55779278 0.57555436 0.72507276
Si 3.36960978 14.39014717 6.24531047 0.00397387 0.00007991 0.00015579 -0.30352742 -0.14798351 0.00226659
Si 4.80049821 15.70644840 7.56023155 0.00292139 -0.00441571 0.00304816 -0.60907827 0.60330473 0.02044355
Si 0.67398479 11.54180523 11.65551734 0.00120650 0.00150755 -0.00544288 0.75367371 0.43808220 0.84560914
Si 2.18570493 13.02327601 13.11050260 0.00417465 0.00020467 0.00416580 -0.71156734 -0.68605041 -1.04872065
Si 0.71234925 14.41411368 14.29127840 0.00136959 -0.00231753 0.00078837 -0.68636059 0.03580672 0.61828748
Si 1.88841146 15.73599005 15.85619962 -0.00063881 0.00244665 0.00292132 0.83698113 0.39380519 -0.54177409
Si 3.48793343 11.56053487 14.44540521 -0.00314511 -0.00026181 -0.00232751 -0.02198922 1.10626499 -0.28610084
Si 4.82781378 13.04434391 15.68308556 -0.00234683 0.00197997 0.00129078 -0.10284634 -0.99014127 1.57472823
Si 3.46015274 14.36408865 11.59770672 0.00017266 0.00257737 -0.00581000 0.29847787 -1.64544552 -0.00425321
Si 4.69603471 15.69367834 12.93760157 -0.00141476 -0.00164760 -0.00604593 1.21095609 1.00093293 0.96304697
Si 6.22476085 0.74891896 0.73557468 -0.00177004 -0.00175411 -0.00471529 -0.17703811 -0.48631218 -0.17843942
Si 7.58142533 2.19941412 2.03177173 -0.00492440 0.00778887 0.00273153 -0.59927264 -0.51920502 0.74292379
Si 6.01075067 3.53237463 3.42732033 -0.00685585 0.00268030 0.00650316 1.12502107 -0.95887323 -0.01664779
Si 7.37161495 4.75738837 4.88952478 -0.00207031 0.00062734 -0.00261501 0.40852983 -0.01290614 0.44805897
Si 8.93486261 0.81162951 3.48271428 0.00260891 -0.00143855 -0.00316343 -0.58741078 -0.00403427 -0.49430733
Si 10.33340506 2.16400704 4.74220298 -0.00185162 0.00353790 0.00448127 0.27848948 -0.12476445 0.53084460
Si 8.94316343 3.39002288 0.58261253 0.00323154 0.00384346 0.00405178 0.35646573 0.50611491 0.89136242
Si 10.23707342 4.73478317 2.10816923 0.00491392 0.00472541 -0.00250089 -0.32729315 0.55742198 -0.65350353
Si 6.09622649 0.68074390 6.19140700 0.00316004 -0.00094978 -0.00279008 0.18837366 1.00260199 -0.13373872
Si 7.58479617 2.02937651 7.61495541 0.00516756 -0.00278619 -0.00226816 -0.85710935 0.64693421 -1.09435676
Si 6.08934718 3.38956856 8.90875534 0.00416088 0.00160616 0.00246961 0.36378250 -0.41016247 -0.08065840
Si 7.49013340 4.72851894 10.21451012 -0.00055719 -0.00510646 0.00149315 0.58295005 0.20991794 0.22899402
Si 8.93652368 0.73074731 8.89505172 -0.00676410 -0.00266264 0.00251494 0.65250986 -0.82168558 0.03091373
Si 10.43615500 2.03835316 10.11472793 0.00223378 0.00198797 -0.00146347 -1.27571747 0.68380610 0.44811299
Si 8.98680627 3.44486102 6.21042462 0.00237206 0.00237785 0.00158823 -1.00599016 -0.24059688 -0.43268393
Si 10.36310144 4.85027804 7.42751781 0.00318513 0.00164413 -0.00031144 -0.62153528 -0.03700753 0.86647366
Si 6.17371770 0.68893384 11.56111447 0.00012237 0.00147885 -0.00078851 0.09216555 -0.69325617 1.12127394
Si 7.56218058 2.02338781 12.96529357 0.00277114 -0.00325875 0.00133766 -0.26619216 0.27930789 -0.14314680
Si 6.24768517 3.44467648 14.36967719 -0.00087676 -0.00022982 0.00052289 -0.36601963 -0.46834511 0.66273795
Si 7.58373845 4.84897089 15.83663853 -0.00101441 0.00507735 0.00029259 -0.78374087 0.64593389 -1.06862090
Si 8.91437213 0.68171456 14.31239533 -0.00048475 0.00554516 0.00182248 -0.66941521 -0.10511487 0.33850504
Si 10.26465873 2.03786146 15.65217491 0.00429804 -0.00751823 -0.00558377 0.29423507 -0.28668268 -0.00958460
Si 8.95054114 3.35155421 11.57642949 -0.00112953 -0.00321043 0.00263475 0.05627933 0.05799702 -0.47333064
Si 10.23318835 4.75473992 12.98393118 -0.00102978 0.00207045 -0.00149188 0.39615596 -0.20420395 -0.32394122
Si 6.04004914 6.36642625 0.64942127 -0.00186686 -0.00195597 0.00162977 0.76011026 -1.48859397 -0.24450132
Si 7.51783188 7.50674297 1.99948213 -0.00199925 0.00266093 -0.00309414 -0.16380143 -0.53497475 1.11641731
Si 6.16834452 8.82289116 3.39865952 0.00051649 0.00147435 0.00039021 -0.17553363 0.36434036 0.82248711
Si 7.49521051 10.30545453 4.78119045 0.00320316 0.00137674 -0.00619538 0.24588748 -0.34596205 -0.31332477
Si 8.73895466 6.00576892 3.47910706 -0.00209432 -0.00271663 -0.00083247 0.59973714 0.77011758 -0.52955712
Si 10.29291852 7.41698498 4.70394661 -0.00209306 -0.00238211 -0.00235764 -0.43428634 0.47377460 0.17711449
Si 8.88808743 8.73314921 0.67824029 -0.00527893 -0.00302991 -0.00175694 1.08315450 0.53638304 -0.39435833
Si 10.31491792 10.13874376 2.01156040 -0.00222665 0.00210078 -0.00203962 -0.38545773 0.22982082 -0.13896009
Si 6.08469524 6.24278571 6.25668544 0.00222822 -0.00035784 -0.00120312 0.15625503 -0.38469246 -0.77982003
Si 7.51158905 7.58528725 7.46368778 0.00544023 -0.00309621 -0.00017270 -0.02604167 0.22316140 0.48605052
Si 6.02117735 8.80733212 8.89673404 -0.00418055 0.00311980 0.00108803 0.28822789 0.58656298 -0.62892200
Si 7.45750060 10.20994552 10.13493836 0.00034500 -0.00020154 0.00080185 0.14322264 0.22517642 0.48986024
Si 8.82786310 6.15460920 8.78773117 -0.00460077 0.00135665 -0.00581433 0.36803126 -0.30951781 0.14248534
Si 10.22331520 7.53273267 10.13046551 0.00133282 -0.00214935 0.00590616 -0.58061522 -0.38502144 0.24499943
Si 8.93194811 8.91972649 6.12350700 0.00883555 0.00120819 -0.00004594 -0.06560497 -0.23007454 -0.58649358
Si 10.21654153 10.30519406 7.50517623 0.00082397 -0.00048938 0.00174161 0.59352585 -0.33796608 0.45301616
Si 6.22189989 6.09573865 11.68441701 0.00363295 -0.00185023 -0.00304111 -0.50891519 -0.45792267 -0.31590248
Si 7.57281933 7.48099271 12.93472151 0.00000004 -0.00052870 0.00256045 -0.10994817 0.77136435 0.28713791
Si 6.19578354 8.89689755 14.34657915 -0.00617473 0.00448890 -0.00296029 0.19142625 -0.51437641 -0.39136447
Si 7.56048671 10.12561043 15.75905168 -0.00383659 -0.00160658 -0.00141946 0.24644709 0.62269752 0.09549177
Si 8.93200719 6.16521072 14.28635947 0.00351029 0.00639509 -0.00328930 -0.47698430 -0.60773023 0.64583942
Si 10.29235935 7.39796066 15.68898205 -0.00096935 0.00174870 0.00281924 0.01107848 1.05517240 -0.08481001
Si 8.86150591 8.87058997 11.49157298 0.00307767 0.00255260 -0.00279853 0.02160401 0.17866779 0.33164032
Si 10.20826948 10.24964400 12.93075999 -0.00503497 0.00144822 0.00298913 -0.71402933 -0.55052287 0.72171894
Si 6.24366081 11.47637451 0.76299321 0.00273454 -0.00093204 0.00181448 -1.10386689 0.94669208 -0.06452126
Si 7.52617598 13.03043771 2.04632324 0.00047023 -0.00240197 0.00025215 0.19340992 -0.11749226 -0.19094804
Si 6.12809718 14.41464448 3.44369046 0.00059313 -0.00285021 0.00235834 0.34853010 -0.53689703 0.78342933
Si 7.56189640 15.83348282 4.84791619 0.00018111 0.00404642 0.00429549 -0.61760317 -0.20872784 -0.80810842
Si 8.94071221 11.57369729 3.31689908 -0.00046773 -0.00134465 0.00356711 -0.58311104 -0.14579136 0.07916107
Si 10.30651470 12.89449294 4.64103597 0.00137641 -0.00261020 -0.00112613 -0.13345715 0.44231428 1.12513525
Si 8.91049508 14.40549119 0.58679934 0.00149898 0.00158243 -0.00410234 -0.03577071 0.00700516 1.74932101
Si 10.25723040 15.80637983 2.14216973 -0.00134464 -0.00193793 0.00240041 0.07676003 -0.34140704 -1.13176934
Si 6.16944281 11.68830554 6.18085289 0.00205972 -0.00123250 0.00293232 0.25610555 0.29097360 0.17312394
Si 7.63175754 13.08363279 7.54292218 -0.00289788 -0.00315961 0.00640254 -0.76381967 -0.12391370 -1.18198870
Si 6.24075935 14.42579873 8.81322380 0.00123904 -0.00196273 -0.00027986 -0.29725326 -0.49164979 0.83282170
Si 7.57886098 15.78023148 10.21965651 0.00240519 0.00264861 0.00215668 -0.43531810 -0.08313984 -0.01915050
Si 8.83488786 11.68584065 8.87046727 0.00513241 0.00074714 0.00211264 0.71642021 -0.66039931 0.35439259
Si 10.30373816 13.01409785 10.20979730 0.00163175 0.00467158 -0.00101577 -0.89791407 -0.73201186 0.62497570
Si 8.90627714 14.37131647 6.02993397 0.00226357 -0.00074351 0.00351105 0.78420396 -0.41393488 0.48637656
Si 10.27169152 15.66482731 7.54336743 0.00038602 -0.00588345 0.00230104 -0.07565589 -0.28050752 -0.17801896
Si 6.29092123 11.61681585 11.65402881 0.00350767 0.00472988 -0.00098652 -1.21480789 -0.28784290 -0.38728975
Si 7.54698857 13.02075569 12.97858020 0.00291943 0.00209628 -0.00423400 0.36422629 -0.33349777 0.93388398
Si 6.14903063 14.37267502 14.39613696 -0.00214458 -0.00247878 0.00165287 0.03280846 0.25245955 -1.34466465
Si 7.54349415 15.68813948 15.70030936 0.00046946 -0.00531468 0.00449021 -0.35524635 1.26078420 0.03734603
Si 8.96375831 11.58073560 14.46775174 -0.00141399 -0.00118827 0.00183003 -1.23177587 -0.22723068 -1.24876668
Si 10.19969404 13.02876552 15.69754597 0.00242134 -0.00220499 0.00006049 0.94856875 -0.58015437 0.90251948
Si 8.82958929 14.33220545 11.53411420 -0.00184100 -0.00231154 -0.00097060 0.61323871 0.16958438 0.27757367
Si 10.13633307 15.71180542 12.95021208 -0.00226851 -0.00342633 -0.00215959 1.13072266 -0.26211878 -0.35084752
Si 11.64916829 0.68945365 0.59619019 0.00075047 0.00090411 0.00172526 -0.50159711 -0.23323178 0.57806656
Si 12.92691406 2.09115980 1.96180804 -0.00339546 -0.00815293 -0.00196724 0.65376608 0.52629131 -0.00174621
Si 11.72999263 3.56086092 3.39537942 0.00147369 0.00207244 -0.00138552 -0.30821351 -1.23604700 0.05130253
Si 13.14622247 4.72647540 4.78082683 0.00012246 -0.00012597 0.00073104 -0.44327326 1.00854044 0.23069081
Si 14.23075314 0.70339284 3.39559912 0.00003474 -0.00154884 -0.00139241 -0.80789064 0.44658104 0.20742736
Si 15.57554249 1.88877750 4.83726980 0.00090576 -0.00133120 -0.00296061 0.81882140 1.03734987 -0.44038928
Si 14.38144461 3.53038424 0.60599850 0.00515458 -0.00159967 0.00491485 -0.25200287 -0.95147367 0.41201533
Si 15.73791496 4.75170563 2.07149589 0.00094137 0.00026194 -0.00485533 0.74421456 0.17441457 -0.50717414
Si 11.57526032 0.62832389 6.13037390 -0.00190810 0.00113088 -0.00347312 -0.09644949 0.19834839 -0.19688615
Si 12.95145345 1.91218957 7.50305724 0.00149330 0.00512627 -0.00110374 0.18109778 1.28761121 -0.37469868
Si 11.70752668 3.46614891 8.79858867 -0.00131236 -0.00208134 0.00643651 0.02017669 -0.14210608 -0.10525437
Si 12.95242512 4.76511077 10.29937494 0.00015365 -0.00317077 -0.00329503 0.84541011 -0.14836184 0.18831680
Si 14.23683016 0.64988944 8.92057518 0.00260845 0.00598579 -0.00123971 0.74522487 -0.41581976 0.34526745
Si 15.73427892 1.91249236 10.27852416 0.00158185 0.00287017 -0.00067567 -0.42780399 0.25848936 -0.47488432
Si 14.39672029 3.36707596 6.17049615 -0.00590590 -0.00015572 0.00325828 -0.17963883 -0.34427896 0.70024699
Si 15.80132882 4.72715070 7.53980776 -0.00124742 -0.00097783 0.00247251 -0.54343082 0.14216786 0.45952379
Si 11.58791216 0.62560135 11.48698791 0.00199383 -0.00012887 0.00006042 -0.17878308 -0.36773445 1.12340207
Si 12.89658988 1.99910991 12.89140018 0.00349781 0.00058619 0.00344915 0.71133755 -0.32704424 0.28305354
Si 11.66583888 3.36150106 14.32954343 -0.00104241 0.00099283 0.00050774 -0.27686610 0.62912648 -0.28842678
Si 13.00614762 4.79994148 15.65550649 -0.00402685 0.00095454 -0.00825892 -0.20519104 0.52325315 0.00604855
Si 14.30615739 0.63054487 14.27738392 -0.00416175 0.00070380 -0.00168200 -0.55788767 0.88388754 1.00230965
Si 15.68261790 2.03933263 15.73237356 0.00101450 0.00175596 0.00371066 -0.15385302 -0.27303088 -0.01711995
Si 14.47427591 3.28684102 11.69241075 -0.00078195 -0.00213579 -0.00184184 -1.20806614 0.62486005 -0.73980883
Si 15.72373935 4.71201322 13.01238616 0.00008843 0.00559904 -0.00672091 0.26099462 1.00097000 -0.05714847
Si 11.60911139 6.13382530 0.70339031 -0.00012287 -0.00440462 0.00024118 0.53015638 -0.27460147 0.08121703
Si 13.11461846 7.58105258 1.92124854 0.00248174 0.00057258 0.00127406 -0.71989224 -1.03705664 0.75885390
Si 11.71171236 8.82824067 3.37934509 0.00407937 0.00132756 -0.00069701 -0.24355360 -0.34924841 -0.08797342
Si 13.05704478 10.14811075 4.76658163 -0.00325530 0.00413573 0.00113563 -0.45794762 -0.06258290 1.05516670
Si 14.41483335 6.11880434 3.35958535 0.00097858 0.00030917 0.00270877 -0.22727969 0.74550784 0.22164012
Si 15.75721399 7.55628308 4.73503588 -0.00057099 -0.00478265 0.00250002 -0.36072144 -0.91525367 0.17223034
Si 14.42763909 8.88737555 0.57636079 -0.00237225 0.00178048 -0.00466496 0.14195503 0.37552739 -0.28975218
Si 15.72761707 10.24259126 1.99147598 0.00232904 0.00381983 0.00069990 0.21049227 0.37171534 0.08380798
Si 11.71096186 6.16611073 6.11655124 0.00077444 -0.00382740 0.00473597 0.50545706 0.06314852 -0.37839123
Si 13.05137297 7.49511145 7.57105802 -0.00210957 0.00016337 -0.00345445 -0.30976311 0.39969730 -0.33919598
Si 11.64703043 8.87597406 8.93882581 -0.00110324 0.00004526 -0.00184177 -0.12431504 0.64084985 -1.10029704
Si 12.87941098 10.33928084 10.29654972 -0.00370938 -0.00042756 0.00230742 0.40355644 0.07355424 -0.37893739
Si 14.34711381 6.15038731 8.93582122 0.00021168 -0.00066580 0.00253843 0.67049357 -0.62629623 0.38771891
Si 15.69717451 7.52663084 10.40967131 0.00097952 0.00282543 0.00065374 -0.40062998 0.02534398 -0.60424996
Si 14.47092112 8.80417236 6.19101701 -0.00256483 -0.00217889 -0.00161510 -0.73373919 0.47278137 -0.14080379
Si 15.84677104 10.17348981 7.50864547 0.00210429 0.00822960 -0.00229019 -0.74334186 0.23022049 0.24500271
Si 11.48197254 6.18226061 11.53640747 -0.00178948 0.00702448 -0.00351345 0.83520071 -0.29828114 0.74061226
Si 12.92372652 7.58863982 12.93930189 -0.00560245 0.00147823 -0.00020571 0.04405219 -0.67249988 0.11573419
Si 11.58822612 8.94328133 14.33072325 -0.00071504 0.00028194 -0.00089406 -0.16043137 -0.57677488 0.19302859
Si 12.95958682 10.26046570 15.71831528 -0.00195349 0.00154036 0.00509181 -0.13471299 0.10109138 0.31767645
Si 14.42148769 6.21587628 14.31746693 -0.00012819 -0.00167895 0.00254774 -0.82273751 -0.36694605 -0.29279510
Si 15.81140041 7.49187495 15.69800381 -0.00035583 -0.00049652 -0.00237746 -0.01138767 0.43998224 -0.26680856
Si 14.22646650 9.00249251 11.61882170 -0.00237425 0.00161229 0.00214186 0.64202754 -0.52077710 0.21361572
Si 15.57812381 10.29000103 13.07912771 -0.00057679 0.00228688 0.00355150 0.13245936 0.49040068 -0.73934214
Si 11.61269148 11.63775154 0.70567748 0.00078675 0.00368490 0.00190204 -0.15052335 0.03405266 -0.12562148
Si 12.98086977 12.98602823 2.12276371 0.00727619 -0.00430592 -0.00184434 -0.31483038 -0.35903992 -0.45423768
Si 11.64140344 14.37013133 3.43807319 -0.00323047 0.00065679 0.00174071 -0.34557697 -0.06656282 -0.37911365
Si 12.96280007 15.71365007 4.75908399 0.00235593 -0.00314660 0.00464900 0.22716337 -0.07489455 0.77860434
Si 14.28647582 11.51660891 3.40734380 0.00342923 0.00017116 0.00277033 0.88215017 0.58144967 -0.26365821
Si 15.73105065 12.95384920 4.68794491 0.00064118 -0.00336668 0.00134614 -0.50609379 0.34096899 0.41017953
Si 14.25662152 14.34177657 0.71531930 -0.00713666 0.00219614 -0.00026800 1.07648459 0.01845947 0.37214008
Si 15.55169241 15.75694100 2.19957209 -0.00428750 0.00094353 -0.00023857 0.76024808 -0.42358987 -1.58906850
Si 11.66579707 11.58636518 6.14437254 0.00367879 -0.00026639 -0.00423590 -0.18113965 -0.28406741 -0.67857864
Si 13.06163303 12.89899476 7.45686408 0.00186174 -0.00080440 -0.00723502 0.82503931 0.21351786 0.17514356
Si 11.70753245 14.17842034 8.85686258 0.00113342 0.00327939 0.00163390 -0.14666454 1.15013126 -0.49987533
Si 12.92848015 15.61725132 10.26474619 0.00134155 -0.00023137 0.00279197 1.05873306 -0.61970357 0.09850161
Si 14.44964671 11.51401913 8.89491320 -0.00059915 0.00045254 0.00384192 -0.50668996 0.42662459 -0.04635495
Si 15.83382773 12.91631564 10.26446378 -0.00115595 -0.00162494 0.00466669 -0.72339659 0.61716525 -0.02786135
Si 14.44499151 14.40518939 6.15462255 0.00159784 -0.00309180 0.00077244 -0.20756558 -0.24731389 -0.19082299
Si 15.77734355 15.84740424 7.57818945 0.00181585 0.00611288 -0.00032142 -0.35704222 -0.58816752 -0.31839071
Si 11.50379439 11.63139486 11.71118391 -0.00155908 -0.00469606 -0.00041451 0.98120421 0.88166662 -0.72295406
Si 12.97851034 12.99766898 13.02808424 0.00175483 0.00253785 -0.00247011 -0.81607009 0.37174762 -0.06204637
Si 11.56145887 14.37580450 14.43760176 -0.00220752 -0.00219711 0.00219626 0.16988358 0.14206448 -1.44403715
Si 13.00462719 15.65590143 15.72433452 0.00030591 -0.00048692 -0.00118523 -0.27491045 0.75407183 -0.20001383
Si 14.24289171 11.70575670 14.43594491 0.00278914 -0.00062907 0.00468458 0.91529755 -0.26631868 0.13457563
Si 15.71735620 13.07164125 15.73898693 -0.00092786 -0.00080845 -0.00119211 0.07316686 -0.18205386 -0.14316714
Si 14.45810457 14.30532018 11.73506387 -0.00249861 0.00032791 -0.00352734 -1.06863582 -0.53248328 -1.57413696
Si 15.62847956 15.77528079 12.96776311 -0.00359949 0.00417774 0.00362254 2.06855293 -0.18812984 -0.26832388
216
Time=2000200.00004691 pbc="T T T" Lattice="16.41039786 0.00000000 0.00000000 0.00000000 16.41039786 0.00000000 0.00000000 0.00000000 16.41039786" energy=-989.77140830 virial="-4.13673943 2.30323664 -5.53844353 2.30323664 -4.88935550 -0.99628616 -5.53844353 -0.99628616 -4.81294375" stress="0.00032749 0.00052117 -0.00125323 0.00052117 0.00015719 -0.00022544 -0.00125323 -0.00022544 0.00017448" Properties=species:S:1:pos:R:3:vel:R:3:forces:R:3
Si 0.80077863 0.65806728 0.64033756 -0.00129721 -0.00061782 0.00259689 -0.85059881 -0.04608353 -0.16893869
Si 2.11059986 1.88491079 2.06487485 -0.00217544 -0.00007612 -0.00158155 -0.58123897 0.65544947 0.55306831
Si 0.71770724 3.37087522 3.34764680 0.00167277 -0.00131193 -0.00186103 0.13469369 0.63391787 -0.23651922
Si 2.06910510 4.66266356 4.88750748 -0.00043380 -0.00350045 -0.00310536 -0.07329447 0.01432106 -0.50448534
Si 3.44573827 0.62658014 3.47622315 0.00589227 -0.00022773 -0.00156562 0.46394127 -0.18035049 -0.42335758
Si 4.86969994 1.96559567 4.73911925 0.00723559 -0.00359773 -0.00296020 0.21070360 0.43563140 0.57705406
Si 3.34823749 3.23479051 0.69850797 0.00370659 0.00256883 0.00150287 -0.02836608 1.86148964 0.03913827
Si 4.67813313 4.73630579 2.10364209 0.00064769 0.00143774 0.00168933 0.11954111 -0.53561730 -0.44494982
Si 0.68831636 0.60432628 6.07164969 0.00139116 0.00346245 0.00082652 0.20997247 1.27988900 0.45683911
Si 1.96206257 1.99297589 7.56285926 0.00118488 -0.00373611 0.00289043 0.63916539 0.06387216 -0.35459160
Si 0.71184955 3.46234254 8.92489139 -0.00033570 -0.00022010 -0.00197633 -0.11323929 0.52808085 -0.01931485
Si 2.16779442 4.90542344 10.24374199 -0.00008929 0.00171260 -0.00483543 -0.57263142 -0.14363401 -0.01809638
Si 3.38558666 0.66344477 8.93263614 0.00327705 -0.00236495 0.00054873 0.27728642 -0.00326773 -0.98093010
Si 4.78472769 2.06797657 10.16921759 0.00163797 0.00010023 0.00019560 -0.04870149 -0.14989286 0.99942198
Si 3.52867255 3.28108906 6.22790273 0.00240080 -0.00123420 -0.00144522 -0.66029173 0.12047297 -0.24535423
Si 4.85241260 4.79145382 7.46939452 -0.00288023 -0.00077469 -0.00291090 0.23667173 -0.16648534 -0.33721854
Si 0.64676685 0.77321186 11.71890207 0.00112579 -0.00300982 0.00006616 0.22868578 0.15169268 -0.64408724
Si 2.08128377 2.12923103 12.96782978 0.00319698 0.00061367 -0.00658067 0.19771871 0.00341216 0.00104230
Si 0.67455113 3.46398675 14.28300361 0.00140733 -0.00223647 -0.00093290 -0.55278792 -0.47300409 -0.17543541
Si 1.98649726 4.70322587 15.63916171 0.00003866 0.00242338 -0.00010793 0.83671076 0.53014613 1.06059197
Si 3.42163022 0.69769692 14.29914018 -0.00126525 -0.00149164 0.00221483 0.50923703 0.69770894 0.39383124
Si 4.79424294 2.12676133 15.75707877 0.00136421 0.00460424 0.00354293 -0.19992476 -1.05214540 -0.90839804
Si 3.48167152 3.50101526 11.60932092 -0.00566177 0.00234240 0.00035432 -0.09060641 -0.35864751 -0.22661162
Si 4.84043435 4.89880600 12.91920169 -0.00377971 0.00158575 -0.00069513 -0.43033561 -1.03489555 1.01111405
Si 0.56319561 6.14605790 0.53268659 0.00160279 -0.00312956 0.00470298 0.37411124 -0.02040444 -0.07081626
Si 1.87397724 7.46953305 1.96811067 0.00078207 -0.00285616 0.00134644 0.86486214 0.07729987 0.38935377
Si 0.67246432 8.88302970 3.43991955 0.00498305 0.00020858 -0.00077427 -0.45315879 -0.37472564 -0.12980423
Si 2.05258246 10.21482197 4.75537310 -0.00255568 0.00171809 0.00601935 0.59408704 -0.09350380 0.53983236
Si 3.28676342 6.09618626 3.41787101 0.00756737 -0.00092258 -0.00814555 -0.06037005 0.20386284 -0.00032916
Si 4.71192610 7.46572043 4.75891819 0.00550541 0.00178802 -0.00029208 -0.28698428 0.01060761 -0.06073998
Si 3.40429269 8.83534892 0.68787563 -0.00251450 -0.00004348 -0.00269366 -0.20359193 0.22927790 0.17936050
Si 4.87353430 10.19720924 1.97766536 -0.00345713 -0.00236092 -0.00069453 -1.24409575 0.23020842 0.83264193
Si 0.60536870 6.09345591 6.12176907 0.00279917 0.00575390 -0.00245625 0.57665884 -0.35250156 0.69214117
Si 1.93044621 7.46401008 7.55080221 0.00162181 -0.00098280 -0.00189000 0.35813347 0.04193743 0.02818688
Si 0.67492085 8.99788614 8.90895657 0.00428204 0.00082803 -0.00183279 -0.03367825 -0.37569347 -0.64964037
Si 2.08450382 10.30217393 10.21273653 -0.00219938 -0.00175996 -0.00246296 -0.41975377 -0.23830158 0.41457402
Si 3.57267690 6.21643976 8.80081113 0.00106076 0.00259259 -0.00375112 -0.86501268 0.09506050 0.26392640
Si 4.94825377 7.60934339 10.12227952 0.00093927 0.00188590 0.00226827 -0.70292190 -0.05633927 0.41794457
Si 3.34952936 8.75092149 6.19206671 -0.00170098 0.00526042 0.00444545 -0.25103384 0.29462619 -0.62258696
Si 4.70921330 10.12399884 7.49858495 0.00348539 -0.00557432 -0.00014462 0.06821164 0.57801448 -0.39154962
Si 0.65654323 6.22279682 11.67883082 0.00195769 0.00159875 0.00222595 0.45449005 -0.15064423 -1.83720114
Si 2.09008403 7.42803335 12.94231721 0.00038791 -0.00002055 -0.00219971 0.75048605 0.93304797 0.21687307
Si 0.79854245 8.79771531 14.33032596 0.00017839 -0.00247193 0.00364535 -0.61963214 0.46631286 0.31554511
Si 2.12060198 10.25988726 15.67661337 -0.00262969 -0.00623003 -0.00018900 -0.05829411 -0.07435938 -0.16462554
Si 3.43710665 6.12911139 14.38231599 -0.00224608 0.00415993 0.00028952 0.17559690 -0.02967813 0.05937632
Si 4.81145207 7.49862770 15.80405386 -0.00098129 -0.00118099 0.00192197 -0.26632110 -0.65528049 -0.16538924
Si 3.42915806 8.87645320 11.49604555 -0.00319814 0.00192964 -0.00128534 0.03916042 -0.51037094 0.39062236
Si 4.70699805 10.23160819 12.93581724 0.00247642 -0.00050414 0.00036572 0.08702673 0.30801037 -0.11191637
Si 0.70476853 11.57533427 0.63260630 0.00252378 -0.00384358 0.00333640 -0.02422729 0.24051862 0.43780031
Si 2.14177556 12.94287133 2.08317478 -0.00008701 -0.00189399 -0.00135891 -1.00907661 -0.17276568 -0.39804359
Si 0.73449130 14.31423418 3.39416690 0.00075816 0.00340538 0.00348158 0.04538885 0.29955737 0.41752165
Si 2.10034846 15.73424963 4.84137768 -0.00231380 0.00009111 0.00575552 -0.03354382 -1.00271182 -0.99117780
Si 3.46046570 11.63080605 3.45575460 0.00027874 0.00245447 0.00042261 0.04820434 -1.42655659 -0.87457116
Si 4.88146800 12.91110444 4.65535512 0.00097516 0.00171636 0.00232776 0.10765236 -0.01200394 1.61453840
Si 3.44533148 14.33099973 0.77753667 0.00017689 -0.00040021 -0.00373403 0.00005006 0.34700180 -0.73935417
Si 4.82521214 15.74010090 2.01647550 -0.00743808 0.00118688 -0.00094381 -0.02076601 -0.46959035 0.98971267
Si 0.77498376 11.52642222 6.23711683 0.00319525 0.00216630 -0.00609831 -0.49197113 0.85865765 -0.40752905
Si 2.12558959 13.01362161 7.51492057 0.00159847 -0.00591580 -0.00233228 -0.23444286 0.16277578 -0.19772366