512
Lattice="21.86957902 0.0 0.0 0.0 21.86957902 0.0 0.0 0.0 21.86957902" Properties=species:S:1:pos:R:3:vel:R:3:forces:R:3:energy_atom:R:1 Time=50100.00000004 energy=-2354.61746204 virial="-3.35494911 -0.4101331 2.42493248 -0.4101331 -2.84674044 0.21768533 2.42493248 0.21768533 -2.40794326" stress="-0.00010984 -3.921e-05 0.00023183 -3.921e-05 -6.125e-05 2.081e-05 0.00023183 2.081e-05 -1.93e-05" pbc="T T T"
Si      21.85820158       0.03060950      21.85163911      -0.00124425       0.00025983      -0.00184958       0.21641234       0.16848938      -0.04979187      -4.59559202
Si       1.38634429       1.36825574       1.36120763       0.00052658      -0.00014004       0.00001443       0.15013312      -0.31004196      -0.27228874      -4.60271317
Si       0.06331266       2.70107915       2.70949641      -0.00127301       0.00044860       0.00074489      -0.55817741       0.24259973       0.12986957      -4.61236906
Si       1.37787503       4.04540614       4.10200721       0.00049374      -0.00229465      -0.00023615       0.05215673       0.32407395       0.25474604      -4.59791056
Si       2.73477899      -0.01472047       2.73970303      -0.00009079       0.00045517      -0.00057901      -0.13961432      -0.04671498      -0.06266317      -4.60160712
Si       4.10150131       1.32653612       4.09347077      -0.00098094      -0.00066877       0.00157782      -0.13796198      -0.02882196       0.23294293      -4.60270137
Si       2.70024994       2.73080803      21.82187605       0.00180069       0.00100027       0.00042112       0.32904237       0.14690578       0.02302254      -4.57913015
Si       4.10220430       4.09606115       1.34187673       0.00182052       0.00338804       0.00129589      -0.24502184       0.05059056      -0.14424849      -4.58427326
Si      -0.00803411      21.85354678       5.46030078       0.00065088      -0.00052819       0.00059050       0.05070683      -0.16707379       0.08982788      -4.60746094
Si       1.34084051       1.33329018       6.83698056       0.00098335       0.00073735       0.00278294      -0.03889688       0.21104144      -0.05815143      -4.61234524
Si       0.01365917       2.75381770       8.18096069       0.00044448      -0.00072889      -0.00197883       0.09072256      -0.23868073       0.23471714      -4.60368222
Si       1.36855862       4.14163172       9.53784382       0.00038594      -0.00105840      -0.00122470       0.09798281      -0.25750586      -0.01562771      -4.60988474
Si       2.71004579       0.01896700       8.19605962       0.00075385       0.00046621      -0.00115928       0.09251600      -0.59871456       0.01738585      -4.59470856
Si       4.05987854       1.38049166       9.54828751      -0.00027339       0.00030139       0.00062177       0.25755390       0.05410517       0.03540135      -4.60980187
Si       2.72808668       2.66388959       5.47544680      -0.00043474       0.00058808       0.00003790       0.07750962       0.25990057      -0.06987419      -4.59437042
Si       4.07823223       4.09822757       6.80935993       0.00083374      -0.00030542      -0.00170876       0.21399141      -0.36949514       0.14638138      -4.58961326
Si       0.03465430      21.87872648      10.90218870      -0.00001519       0.00038344       0.00026659      -0.08308450      -0.27229091       0.35735261      -4.60041817
Si       1.38704116       1.35714044      12.27076260      -0.00177103      -0.00065027      -0.00016285       0.07948346       0.10013188       0.02258843      -4.60832719
Si      21.88827467       2.69505997      13.64814933      -0.00067881       0.00116950      -0.00003461      -0.10880271      -0.02497667       0.28003873      -4.60010904
Si       1.37829358       4.08505205      15.00798734       0.00121218      -0.00112611       0.00125980       0.03489616      -0.07978856      -0.14470258      -4.61177601
Si       2.75462226      -0.02210678      13.62082565      -0.00061978       0.00020827       0.00074097       0.00122456       0.09625882       0.42026233      -4.59642484
Si       4.10888765       1.30332445      15.07074165       0.00077049      -0.00150790       0.00045780      -0.28192698       0.38156465      -0.31732137      -4.58478210
Si       2.72647730       2.77240103      10.91608270      -0.00137465      -0.00033728       0.00110406      -0.17014509      -0.18482772      -0.07079477      -4.60129563
Si       4.09717462       4.06324507      12.30634550      -0.00009363       0.00013369       0.00053235       0.18904008      -0.00527355       0.00417269      -4.61809027
Si      -0.03855848      21.82388282      16.43412471       0.00092478       0.00049629      -0.00120954       0.37296803       0.16990464      -0.21080842      -4.60207911
Si       1.37541470       1.35718938      17.74577641      -0.00037709       0.00026671       0.00162932      -0.21422906      -0.07972864       0.03030208      -4.59737698
Si      21.86969956       2.73771992      19.10218000      -0.00212221      -0.00011780       0.00095453      -0.17377636      -0.10464331      -0.20455779      -4.61001509
Si       1.30322850       4.10194681      20.46333981       0.00044930      -0.00037337       0.00014637       0.51941538      -0.07629657       0.11525102      -4.60584644
Si       2.73675878      21.86958043      19.12089547       0.00068871       0.00028638       0.00106820       0.00004414      -0.00345356      -0.04432709      -4.60450979
Si       4.12047948       1.38513489      20.43739772       0.00101032      -0.00074317      -0.00037826      -0.35728645       0.40304592       0.07764021      -4.59605318
Si       2.73100112       2.73596849      16.38781921      -0.00060680      -0.00036352      -0.00100473       0.11601935      -0.28233997      -0.06481045      -4.59336124
Si       4.11755155       4.08875620      17.72818708      -0.00230521      -0.00156023      -0.00051492       0.01946488       0.00273455       0.11335377      -4.59729308
Si      21.82173673       5.42246495      -0.02161321      -0.00126300      -0.00034917       0.00061808       0.15518152       0.51840061       0.10030891      -4.60333208
Si       1.31127146       6.81943150       1.35240079      -0.00193923      -0.00046626       0.00025896       0.22378047      -0.20985787       0.10037846      -4.59382214
Si       0.06170643       8.25307171       2.75486663      -0.00001175       0.00092201       0.00065114      -0.47632935      -0.22828609      -0.16352071      -4.58251107
Si       1.38031763       9.59755341       4.15563858      -0.00107990      -0.00064851      -0.00007192       0.15128414      -0.11399800       0.01410160      -4.61104421
Si       2.70177053       5.44286881       2.73631264       0.00051198       0.00025456      -0.00345618       0.16386772       0.14649117      -0.19187232      -4.59308751
Si       4.10279522       6.81925062       4.08932066       0.00142529      -0.00079964      -0.00087637      -0.10053624       0.07667138       0.08146116      -4.59659475
Si       2.68475292       8.15071221      21.84735576      -0.00058309       0.00058821      -0.00044199       0.39588520      -0.02815173       0.22100524      -4.60454947
Si       4.08380949       9.50962671       1.35792712      -0.00163620       0.00141269       0.00199746       0.15041649      -0.11923772      -0.09453437      -4.59520362
Si       0.04480601       5.49478183       5.47454013      -0.00093954       0.00055574      -0.00087944      -0.03650973      -0.58607422      -0.05428569      -4.59715130
Si       1.38538862       6.83167438       6.85799174      -0.00134144       0.00079238       0.00042276       0.15672962       0.19528259      -0.22193092      -4.61536435
Si      21.87822064       8.17562199       8.20415103       0.00041974      -0.00111158      -0.00053072      -0.31812226       0.02953367       0.00821673      -4.60106124
Si       1.30577517       9.56329751       9.57919331       0.00001618      -0.00076150      -0.00214224       0.54733307      -0.12023731      -0.06125863      -4.59815083
Si       2.75954823       5.47129329       8.17455184       0.00000302      -0.00000332      -0.00162310      -0.00269555      -0.00135934       0.24258298      -4.62034327
Si       4.12216194       6.79241776       9.58617695       0.00046225      -0.00022742      -0.00051156      -0.05254228       0.30667543      -0.01801114      -4.58909843
Si       2.77837295       8.20969701       5.50709589       0.00085524       0.00082847       0.00083516      -0.28052508      -0.08199238      -0.22247267      -4.58915228
Si       4.08569443       9.60325750       6.87216284       0.00043747       0.00120530       0.00147961       0.07459578      -0.10989311       0.09058218      -4.61034733
Si      -0.01412031       5.44470388      10.90600049       0.00069596      -0.00018976       0.00095097      -0.42224179       0.09555489      -0.14577969      -4.61159617
Si       1.34085085       6.76929766      12.26422779       0.00172836       0.00083820       0.00242476       0.06558848       0.39458187       0.61946753      -4.58376859
Si      21.86540786       8.22196527      13.68725912      -0.00013301       0.00003287       0.00307898       0.32894826      -0.14829731      -0.40880661      -4.57804086
Si       1.39792474       9.61438576      15.01597897      -0.00346800       0.00073210       0.00068005      -0.32823277      -0.30973175       0.35347673      -4.60193451
Si       2.76883012       5.43720261      13.65681263      -0.00018614       0.00001420       0.00156712      -0.39035559       0.20608060      -0.13907508      -4.59902902
Si       4.10989487       6.83151499      15.00443951       0.00022334       0.00118015      -0.00162696      -0.32327102       0.40381445       0.03045109      -4.60566539
Si       2.68462262       8.16047057      10.93285839      -0.00028652      -0.00130255      -0.00239823       0.27477745       0.15615126      -0.10633595      -4.58608208
Si       4.07439911       9.54759280      12.31614614      -0.00021166      -0.00204568      -0.00188454      -0.10181753      -0.05867644      -0.21972782      -4.60198901
Si      21.90033031       5.46986032      16.33851290       0.00072351       0.00038228       0.00197108      -0.07847303       0.28512230       0.48336852      -4.58619177
Si       1.40807203       6.83034684      17.78560845      -0.00103624       0.00216355      -0.00185424      -0.36471289       0.15638967      -0.67590127      -4.58356716
Si       0.04631761       8.22116570      19.12577717       0.00103344       0.00055225      -0.00123392      -0.26278903      -0.03215776       0.04851420      -4.59677339
Si       1.38885072       9.57771484      20.52692175      -0.00013967       0.00066487      -0.00242027      -0.28382165       0.10311883      -0.17287639      -4.60677546
Si       2.71850151       5.43142146      19.09486683      -0.00145475       0.00061148       0.00075444       0.32484468      -0.11477551       0.36946234      -4.59033392
Si       4.08564364       6.80500144      20.48190562       0.00039661       0.00046648       0.00074354      -0.22000832       0.08329901      -0.10316122      -4.59445733
Si       2.75138981       8.22705714      16.39438876       0.00138993      -0.00120166      -0.00182084       0.02385639      -0.18693626      -0.07837519      -4.58235397
Si       4.14105429       9.57021034      17.75885638      -0.00026150       0.00004074      -0.00037484      -0.12626401      -0.00602198       0.21793175      -4.59032873
Si       0.00233534      10.97510874      -0.00077747      -0.00252804      -0.00016964       0.00001189       0.22048755      -0.37428112       0.26003388      -4.60170488
Si       1.40495712      12.31023268       1.38019630      -0.00110250       0.00316185      -0.00235901      -0.06124008      -0.18551905       0.03847216      -4.59094089
Si       0.01720139      13.66535660       2.73617529      -0.00194628       0.00079937      -0.00005777       0.14017636      -0.11106355      -0.05207297      -4.61595351
Si       1.39802439      14.98390337       4.10712165      -0.00012865       0.00047948       0.00033958       0.18751848       0.40630306      -0.18319483      -4.58927053
Si       2.77168544      10.88434847       2.74087744       0.00004053       0.00072820       0.00045478      -0.21961860       0.41651378       0.03207190      -4.59993418
Si       4.11839873      12.28329257       4.11216120       0.00286016      -0.00048720      -0.00216194      -0.21605742       0.25656052      -0.08465978      -4.59588863
Si       2.71316524      13.69061585      21.83165749      -0.00088271      -0.00113496       0.00183917      -0.05998651      -0.38105475       0.11240862      -4.60670668
Si       4.06631325      15.06106754       1.28448180       0.00124094       0.00049029       0.00051053       0.26232139      -0.11778082       0.36584221      -4.61236087
Si      21.84158087      10.94874525       5.49376875      -0.00075464       0.00171071       0.00080380       0.10118440      -0.01712213       0.03824673      -4.60041515
Si       1.37919270      12.29211354       6.85598461      -0.00083076       0.00055645      -0.00068812      -0.27646572       0.18440748       0.02369500      -4.59864092
Si      21.86191098      13.68023936       8.23185658       0.00029000      -0.00103361      -0.00011515       0.29985325      -0.06327572      -0.25147600      -4.60293865
Si       1.36977445      15.04652003       9.56306807      -0.00016474      -0.00115861       0.00061109      -0.00706497       0.22197178       0.16104518      -4.60255665
Si       2.72494868      10.96528029       8.24205852      -0.00112570      -0.00083384      -0.00087370      -0.00729808      -0.09465096       0.23741957      -4.58258563
Si       4.12057934      12.36542757       9.60613056       0.00272299       0.00067934       0.00098154      -0.38223774      -0.33260362       0.09737090      -4.59002699
Si       2.76104418      13.66463256       5.51557515       0.00128182       0.00063819       0.00108905       0.06639246      -0.15930423      -0.05101192      -4.58765405
Si       4.13234335      15.02634760       6.91405743      -0.00061953       0.00093630      -0.00022720       0.00116541       0.13956323      -0.81379899      -4.59910470
Si      21.80584431      10.89172204      10.92704829       0.00009667      -0.00008599       0.00010182       0.15848651       0.34203342       0.15480748      -4.61263659
Si       1.34157438      12.23438911      12.28538462       0.00002656      -0.00019504       0.00171796      -0.06318860       0.44894524      -0.05442188      -4.59103270
Si       0.01342473      13.65565272      13.67161040       0.00011508      -0.00112442       0.00008862       0.02049863      -0.06455141      -0.01953493      -4.58604751
Si       1.37147193      15.05250529      15.04153323       0.00004463      -0.00036779      -0.00076801       0.00260491      -0.03745611      -0.26048674      -4.59773904
Si       2.73248567      10.95010964      13.66158470      -0.00028129       0.00047652       0.00127024       0.28621662       0.02617322      -0.03028567      -4.62124364
Si       4.08296415      12.32786449      15.05161520      -0.00206343       0.00170077      -0.00215014       0.04627001       0.04312502      -0.18934277      -4.60334563
Si       2.68525131      13.69766510      10.96220783       0.00173196       0.00057822      -0.00071705       0.16670328      -0.33439803      -0.00264787      -4.59500031
Si       4.09690628      15.02262517      12.31919471      -0.00118389       0.00208925       0.00225156      -0.00245115       0.08292946      -0.04217978      -4.60750498
Si       0.01461866      10.96389894      16.41117938      -0.00095634      -0.00207195       0.00142609       0.01930803      -0.22354986       0.06199713      -4.59625262
Si       1.36136210      12.34763881      17.78563825       0.00016760       0.00157050      -0.00082306       0.07341251      -0.37876816       0.11832340      -4.59489081
Si      21.83409246      13.71542192      19.10572998      -0.00069182      -0.00135552      -0.00021789       0.22543448      -0.32050459       0.37162562      -4.60194236
Si       1.33737175      15.04972128      20.51030811       0.00175980       0.00092902       0.00040731       0.30383853      -0.15106093      -0.54019725      -4.60045673
Si       2.74222660      10.91693556      19.14567876      -0.00007679      -0.00003708       0.00083801      -0.03785199       0.15524399      -0.31441558      -4.60168537
Si       4.07910258      12.27780235      20.51118565      -0.00094478      -0.00201514       0.00058768       0.34970760       0.15210329       0.00237128      -4.59406992
Si       2.71186390      13.68274744      16.40441235      -0.00045566      -0.00030043       0.00080470       0.17819162       0.07117543       0.09129144      -4.60742178
Si       4.12551767      15.02178498      17.76368856      -0.00050117       0.00251961       0.00074088      -0.17576219      -0.02340983       0.13401167      -4.60852782
Si       0.03636716      16.40550931      21.85792549       0.00167662       0.00181681       0.00044005      -0.29289168       0.33232952       0.52151867      -4.59504412
Si       1.36316273      17.76531037       1.43721929       0.00024588      -0.00253303      -0.00092857      -0.13021294       0.25826391      -0.62302250      -4.57407542
Si      21.83588115      19.17182477       2.71730192       0.00058721      -0.00077194       0.00027470       0.20502614       0.13608466      -0.06300470      -4.59754219
Si       1.36827455      20.48031743       4.11340056      -0.00015988      -0.00049566      -0.00187579       0.05091705      -0.07694488      -0.03798117      -4.58859400
Si       2.76656061      16.40867201       2.70666717      -0.00081729      -0.00197494      -0.00030711      -0.26285505      -0.35900956       0.44288660      -4.59936394
Si       4.08832445      17.76922107       4.09905259      -0.00113237       0.00245196      -0.00168912       0.19782682      -0.39851664       0.08662101      -4.60241377
Si       2.72158606      19.17326649      21.89109596       0.00058406      -0.00079332       0.00164661      -0.09492819      -0.37538541       0.17158068      -4.59048710
Si       4.08684927      20.53830647       1.33218734      -0.00171124      -0.00007050      -0.00032811       0.11689120      -0.03850494       0.15787225      -4.60838072
Si      21.89198931      16.37795846       5.42392540      -0.00070541       0.00119924       0.00204545       0.20266688       0.17030354       0.37697256      -4.59315244
Si       1.38995163      17.72306649       6.87861365      -0.00145587      -0.00068741       0.00085540      -0.05686039      -0.08280667      -0.27950301      -4.58681508
Si      21.87923320      19.10895658       8.21231612      -0.00121950       0.00033002       0.00012364       0.24447109       0.16938722      -0.32148003      -4.61477957
Si       1.35994408      20.48137832       9.57643171      -0.00200209       0.00206637      -0.00018824       0.28877207       0.11537415      -0.16380768      -4.59937189
Si       2.81287877      16.40392621       8.24720697      -0.00054012       0.00059683      -0.00118279      -0.67882150      -0.02303265      -0.04185604      -4.60417348
Si       4.09492556      17.80455939       9.59654295      -0.00041356       0.00081159      -0.00021520      -0.00208212       0.07514146       0.07931834      -4.60906259
Si       2.73614852      19.08262428       5.48485649       0.00237298       0.00052983       0.00167673      -0.39278889       0.17157986      -0.08464038      -4.60892340
Si       4.07139148      20.46273104       6.81804856       0.00007056       0.00175799       0.00012174       0.18253876       0.19782971       0.54293169      -4.58425401
Si      21.87366716      16.41949677      10.95103419      -0.00077278      -0.00011228      -0.00033612      -0.07189009      -0.29761991      -0.19555150      -4.59520435
Si       1.37639668      17.76346008      12.28855773       0.00134567      -0.00375429      -0.00037420       0.31650661      -0.09920907       0.22118440      -4.60280343
Si       0.04644070      19.12818281      13.63534439       0.00103037      -0.00128863      -0.00120613      -0.57054134       0.21299901       0.05004388      -4.59392015
Si       1.36610925      20.49507483      15.01059425      -0.00144985      -0.00105863       0.00063136       0.09457773       0.07230363       0.23442589      -4.58820538
Si       2.77446453      16.41368580      13.67584447      -0.00086333       0.00141600      -0.00080352      -0.31282888       0.00167016       0.05194075      -4.59282394
Si       4.11425128      17.77642012      15.05666812       0.00200658       0.00052255      -0.00047867       0.13031847      -0.03181623      -0.10671902      -4.60460667
Si       2.73679612      19.15851490      10.97333443      -0.00125421       0.00157028      -0.00088887       0.03764721       0.00589230      -0.22730421      -4.60085885
Si       4.16015097      20.50719802      12.28903075      -0.00148743       0.00263695       0.00079769      -0.33992508      -0.15531202       0.21100334      -4.60696441
Si       0.01037977      16.40902328      16.40124520      -0.00054698      -0.00353077      -0.00032703       0.05412783      -0.14876644       0.36919596      -4.60594523
Si       1.38611287      17.72882875      17.80868562       0.00090569      -0.00019935      -0.00243872      -0.18132757       0.21798998      -0.10715598      -4.59263289
Si       0.00478716      19.13667679      19.16665300       0.00032239      -0.00046770      -0.00184104       0.16464847       0.22896042      -0.36486685      -4.58344559
Si       1.40046679      20.52701235      20.52051123       0.00060584       0.00135961      -0.00099442      -0.47159103       0.00207668      -0.16425379      -4.59890676
Si       2.77045520      16.37955435      19.15665762      -0.00159979       0.00188906      -0.00226817      -0.07039771       0.04358280       0.14552179      -4.59275927
Si       4.08849116      17.79704007      20.54733809      -0.00100466      -0.00038606      -0.00090558      -0.03279157      -0.25984927      -0.20861417      -4.59804024
Si       2.72105110      19.09815884      16.40938846       0.00014900       0.00020223       0.00020421      -0.23659263       0.19166675      -0.05996544      -4.59247204
Si       4.06905039      20.44124810      17.79579012      -0.00100886       0.00185340       0.00059187      -0.07686918       0.10788993      -0.02096524      -4.60773832
Si       5.42089921       0.06381178      21.83007773       0.00007104       0.00090771      -0.00021092       0.37337409      -0.51617148       0.10235407      -4.60134818
Si       6.78469439       1.37129029       1.35367230       0.00119259      -0.00264924       0.00008704       0.10999228       0.06124377       0.16572639      -4.59798221
Si       5.41262122       2.72385183       2.75201312      -0.00034360      -0.00158289      -0.00131940       0.16085850       0.00847210      -0.40056655      -4.60389455
Si       6.78814981       4.04748444       4.10603998      -0.00118120       0.00237453       0.00116395      -0.10410569       0.42385049       0.12671387      -4.60867163
Si       8.12971377      21.86202033       2.74771404       0.00094131      -0.00019458      -0.00131665       0.17070068      -0.31318635      -0.14344677      -4.56522006
Si       9.52287249       1.32640880       4.15177939       0.00010094      -0.00096095       0.00020530       0.00232730       0.12580902      -0.40622559      -4.58037758
Si       8.18554473       2.69107474      -0.02594846      -0.00075497      -0.00084263      -0.00092365       0.11954202       0.26346432       0.24959995      -4.59630211
Si       9.55256601       4.05497019       1.39829987      -0.00065461       0.00011776      -0.00023149      -0.02730247      -0.09438101      -0.32590639      -4.60137814
Si       5.44467572      21.83248909       5.48258326      -0.00047412      -0.00013769       0.00055230       0.09417942      -0.01396531      -0.17615353      -4.59324692
Si       6.82718794       1.37146986       6.79435205       0.00153982      -0.00006623       0.00116150      -0.25644967      -0.45999037       0.34337630      -4.61177589
Si       5.48060115       2.70474743       8.18638237       0.00024353      -0.00204640      -0.00252568      -0.39553176       0.13614033      -0.13742328      -4.59291909
Si       6.86287564       4.02941558       9.54968309       0.00023853      -0.00156585       0.00035306      -0.09448229       0.39429529       0.17995332      -4.59877378
Si       8.15511290      21.84741155       8.17589772       0.00211763       0.00018988       0.00008720       0.33764335       0.23839526      -0.05202419      -4.59801531
Si       9.54021716       1.34201960       9.56139787      -0.00269903      -0.00070178       0.00048675       0.12209543       0.01399267      -0.11737086      -4.59901218
Si       8.14265720       2.73318166       5.47253203       0.00072894      -0.00096972      -0.00274567       0.71384026       0.02931712       0.06644477      -4.60162596
Si       9.57694030       4.07819342       6.84932800      -0.00019005      -0.00154382      -0.00051668      -0.23490792       0.24693640      -0.25878565      -4.59105283
Si       5.43502446       0.01274400      10.91203459      -0.00175290      -0.00119444      -0.00141784       0.44856455       0.18863177      -0.03266082      -4.59192610
Si       6.84644983       1.35641823      12.32316220      -0.00021333      -0.00038611       0.00044848      -0.30477154      -0.11075855      -0.04049283      -4.59033765
Si       5.45980261       2.71537853      13.69099077       0.00037102      -0.00087107       0.00110794      -0.10059552      -0.26225939      -0.10433400      -4.59373357
Si       6.78814765       4.12840100      15.00508217       0.00170609       0.00050887      -0.00007433       0.24191441      -0.21223107      -0.02751564      -4.60153459
Si       8.19638785      21.88695598      13.73179030      -0.00295129      -0.00034198       0.00202572      -0.23895299      -0.32700089      -0.37891839      -4.61068497
Si       9.50833758       1.36805376      15.08724622      -0.00223983      -0.00041856       0.00245848       0.35219028       0.46288564      -0.25489396      -4.61071366
Si       8.20712101       2.70194412      10.95911173      -0.00032393       0.00065739      -0.00020865       0.09853948       0.06289805      -0.16352014      -4.61637755
Si       9.57004730       4.10299267      12.27930907       0.00071302       0.00016988       0.00112482       0.25578962      -0.10107546       0.02757654      -4.59701818
Si       5.41269638      21.83126720      16.47007950      -0.00071237      -0.00042058       0.00185586       0.37491115      -0.08343942      -0.13443739      -4.61020513
Si       6.83237288       1.30088230      17.80152750       0.00080995       0.00083418      -0.00032978      -0.12211309       0.40695969      -0.20073039      -4.59700678
Si       5.52074816       2.76900142      19.12224364       0.00099291      -0.00031863      -0.00198708      -0.22339420      -0.19300094      -0.13730565      -4.58955330
Si       6.86620380       4.12408642      20.50036597      -0.00086705      -0.00000268       0.00047973       0.04841267      -0.17018351      -0.05160992      -4.60855993
Si       8.24307728      -0.00763350      19.13577040       0.00113248      -0.00218950       0.00128369      -0.42480454      -0.31862488      -0.00569026      -4.60963480
Si       9.55502351       1.35720459      20.45012800       0.00075231      -0.00087380       0.00128650       0.12980575       0.13461868       0.63412103      -4.61430420
Si       8.11179988       2.73174372      16.39616927       0.00135047       0.00050738      -0.00013613       0.11741227       0.00398749       0.17003691      -4.58056295
Si       9.52961775       4.08166226      17.74499122       0.00000339       0.00077555       0.00026512       0.10413236       0.09485556      -0.06775553      -4.59902992
Si       5.48023798       5.47082267      21.82153376      -0.00126819      -0.00203954       0.00155545      -0.24195677      -0.25319660       0.39881377      -4.59978813
Si       6.82706368       6.75827831       1.38283365      -0.00025249      -0.00061125      -0.00115772       0.10683851       0.17400258       0.24893368      -4.60780813
Si       5.49236061       8.17696043       2.73152737       0.00152572       0.00100998      -0.00004199      -0.15119151      -0.07532430       0.01566409      -4.60348097
Si       6.81864186       9.56039917       4.13039233       0.00147933      -0.00180750      -0.00022855       0.19936379      -0.20666083      -0.15210191      -4.61103777
Si       8.18479753       5.38888756       2.77957117       0.00123980      -0.00046838       0.00333827       0.21797826       0.44302355      -0.00453634      -4.59236381
Si       9.58612029       6.81951541       4.14941955       0.00085440       0.00155044       0.00114833      -0.13240516      -0.35933986      -0.30624623      -4.58964964
Si       8.17611086       8.15578552       0.06261729       0.00188308       0.00371982      -0.00016752       0.03851982       0.08198179      -0.32284597      -4.60330031
Si       9.54956273       9.56286609       1.35637532      -0.00161005       0.00053731      -0.00098701       0.07625469      -0.03450830       0.32774077      -4.60822537
Si       5.46031737       5.46855001       5.48630611       0.00035024      -0.00026324      -0.00024298      -0.00222272      -0.04862680      -0.23646152      -4.60052504
Si       6.79693145       6.85860368       6.85773983       0.00040462       0.00014704      -0.00027539       0.23442738       0.00479080      -0.02477835      -4.59627505
Si       5.46127874       8.25121665       8.24248552      -0.00003609      -0.00009433      -0.00113543      -0.07912716      -0.26454454      -0.04495176      -4.59397990