1728
Lattice="32.7433 0.0 0.0 0.0 32.7433 0.0 0.0 0.0 32.7433" Properties=species:S:1:pos:R:3:forces:R:3 energy=-7519.685043041554 stress="-0.005838973948571214 0.0003178833841682321 -0.0003746525840544879 0.0003178833841682321 -0.005485055135827614 -0.0003683951955010082 -0.0003746525840544879 -0.0003683951955010082 -0.005101535394626777" free_energy=-7519.685043041554 pbc="T T T"
Si       0.68141936       2.37447074       2.05827064       0.00011556      -0.00001952      -0.00003113
Si      17.98744854       0.16428876      22.78911003       0.00003281      -0.00001286       0.00002749
Si      31.43998319      15.63832085      20.21551543       0.00001423       0.00013025      -0.00008467
Si      27.76330671      14.30693002      19.42309623       0.00000751      -0.00002583       0.00004836
Si      29.87181851      13.90992071      20.28750987      -0.00002748       0.00000737      -0.00001989
Si      26.56010415      14.68677314      21.37388338       0.00000979       0.00009270       0.00002681
Si      24.37772428      14.24958050      20.83889806      -0.00004776      -0.00004093      -0.00000058
Si      20.59196724      14.42674087      20.00405437       0.00005034      -0.00005542       0.00002068
Si      17.45079669      16.15534536      20.79660432       0.00019432       0.00001909       0.00006663
Si      18.31067580      14.33951481      19.57114321      -0.00003024       0.00001888      -0.00006409
Si      32.26312820      11.40594334      20.75594982      -0.00007508      -0.00001486       0.00001367
Si      30.59086543      11.97834414      19.18437842      -0.00010199       0.00007280      -0.00005613
Si      24.62316749      12.15209044      19.86341899       0.00003614      -0.00005195      -0.00002874
Ge      17.73815105      12.13941068      20.29515941      -0.00003723      -0.00006039      -0.00000260
Si      29.23945084      10.17450001      19.86739259      -0.00003946       0.00006193      -0.00004182
Si      25.24669559      10.45521804      21.29961600      -0.00004039      -0.00003259      -0.00000065
Si      25.72511121       8.79116249      19.50240242      -0.00000448       0.00001746      -0.00008050
Ge      21.86883245       8.23613872      19.30676526      -0.00003453      -0.00007923      -0.00000471
Si      21.26787558      10.42357149      20.01866228       0.00019791      -0.00004340       0.00001986
Si      19.04577195      10.26358129      19.52404417      -0.00009097       0.00004981      -0.00000846
Si      29.73921939       6.74457944      21.40298790       0.00010118      -0.00000782      -0.00003074
Si      29.47306949       7.87412845      19.42740799      -0.00001595       0.00002607      -0.00005538
Si      25.85709100       7.26187178      21.43033906      -0.00007032       0.00001457      -0.00003745
Ge      22.34058864       6.94219212      21.28243378      -0.00003168      -0.00005444       0.00001461
Ge      18.56740878       2.36826154      21.87725646       0.00001678      -0.00013969       0.00003756
Si      19.10897153       5.99627497      20.64572169      -0.00001307      -0.00004403      -0.00002366
Si      20.68029398       1.30897095      24.47186631      -0.00001114      -0.00001274       0.00003216
Si      23.76162564       2.02367824      22.50216191      -0.00002627       0.00003549       0.00007228
Si      23.54377205      10.02846034      22.85655639      -0.00004424      -0.00010637       0.00002931
Si      19.93080095      10.34445698      23.90605354       0.00001327       0.00006650      -0.00002521
Si      17.59381142      10.56167529      23.45363775       0.00000208      -0.00007410       0.00000673
Si      17.01549563       8.55103018      22.29741357       0.00002557      -0.00006905       0.00007846
Ge      31.62158043       8.09150383      24.11908794      -0.00001336       0.00001434       0.00009782
Si      31.93351853       7.38297686      21.93919832       0.00006099       0.00000124       0.00002760
Si      27.91637256       7.79183848      22.40548290      -0.00004841      -0.00000751       0.00003274
Si      23.96040939       7.72082743      22.76754738      -0.00001360      -0.00009659      -0.00004018
Si      20.43686832       6.47887587      22.57605258      -0.00005695       0.00002576       0.00008089
Si      19.82128352       7.98593928      24.30679815       0.00010181      -0.00001935      -0.00003665
Si      17.58516195       7.11695555      24.13655128       0.00000788      -0.00001697       0.00006423
Ge      32.16929615       3.80104322      24.03716977       0.00011266      -0.00005278      -0.00004504
Si      32.74925985       5.17451979      22.07737274       0.00001408       0.00004679      -0.00007535
Si      28.66477195       3.60590994      23.19716668      -0.00005206       0.00011432       0.00003272
Si      26.42536947       4.26901857      23.40740378      -0.00001553       0.00003900      -0.00000355
Si      22.13574216       3.56029356      21.96345073       0.00002244       0.00003970       0.00001355
Si      19.12019806       3.28921970      24.23103269      -0.00005855      -0.00001217      -0.00002151
Si      21.03704097       4.55991650      23.73974111       0.00002978      -0.00004452       0.00006343
Si      17.28810117       4.82074267      23.59932850      -0.00002769      -0.00005037       0.00006418
Si      30.64397190       0.02502761      23.28999012       0.00003976      -0.00005474      -0.00000368
Si      32.56270881       1.41082900      23.59241381       0.00004328      -0.00002811      -0.00000888
Ge      28.43124303       1.23085808      23.31849709       0.00010858       0.00006534       0.00001186
Si      25.15119389       2.48621221      24.30041335       0.00006657       0.00010004       0.00012013
Si      22.32304955       0.29068727      23.04127648      -0.00003891      -0.00005119       0.00003744
Si      28.83478164       9.95073403      22.19606292      -0.00002123       0.00006664      -0.00003345
Si      18.15611521       8.15026143      20.26549114       0.00002675      -0.00000743       0.00007451
Si      28.66602754       3.54920998      19.30200584      -0.00007952      -0.00000869       0.00006623
Si      22.96265985      10.51915776      16.58427865       0.00002848       0.00002672      -0.00002772
Si      23.85966476       8.52968649      18.02736337       0.00003940      -0.00009585       0.00005823
Si      18.93760115      10.49935928      17.16629478      -0.00001997      -0.00003219       0.00004148
Si      31.25328718       7.35078241      18.07986910       0.00001321      -0.00006723      -0.00005743
Si      27.35468367       7.15821678      18.76551566      -0.00002826      -0.00006926       0.00000868
Si      27.41446204       7.10014631      16.45580960      -0.00010930      -0.00003767       0.00000418
Si      23.82848066       6.23678462      17.06758230      -0.00004236      -0.00003586      -0.00000063
Si      20.52978061       7.02604964      17.61971146      -0.00005240      -0.00000023      -0.00001909
Ge      16.89122090       7.68047866      18.26706110       0.00001897       0.00008085       0.00001125
Si      18.61918130       8.06810340      16.60172657      -0.00002991      -0.00002090      -0.00007172
Si      31.70162858       5.04843961      18.19005258       0.00001576       0.00003071       0.00002880
Si      29.86418886       3.87019895      17.30916188       0.00001335       0.00008439       0.00004105
Si      25.47617194       4.29464947      17.36772349      -0.00003231      -0.00003576       0.00003930
Si      22.59973499       4.60249517      18.36120539       0.00008038      -0.00006421      -0.00000499
Si      20.20590866       4.83107969      18.77354694      -0.00006155      -0.00006453       0.00001372
Ge      16.75320957       3.23895662      17.89390578       0.00001149       0.00008915       0.00005712
Si      19.13132499       3.26172743      17.26841212      -0.00006100       0.00007279      -0.00005095
Si      28.49085608       0.36064344      17.75900834       0.00001693      -0.00000673       0.00005118
Si      26.16382477       0.34617465      17.55312711      -0.00008116       0.00002590      -0.00002333
Si      25.11070674       2.20113712      18.50801552      -0.00000208      -0.00003119      -0.00003107
Ge      22.87901545       2.25800758      17.72945063       0.00000132       0.00002596      -0.00005152
Si      19.45737358       0.91076979      17.96466268       0.00001586      -0.00002106       0.00009062
Si      32.01947855      16.30301563      14.71447868      -0.00010428      -0.00005140      -0.00001146
Si      28.29210525       9.27886391      16.38756807      -0.00004541      -0.00003443       0.00006431
Si      31.72406978       4.07279554      20.31758592       0.00007172       0.00006799      -0.00009680
Si      27.40996261      10.24114287      18.41576941      -0.00010285      -0.00005149       0.00003664
Si      22.67066078      11.71070434      18.65229870      -0.00007117      -0.00011563       0.00005861
Si      29.58991416       4.44087145      21.22716225       0.00002574       0.00003627       0.00000800
Si      26.82151782       4.94080995      19.17396540      -0.00002563      -0.00007163      -0.00005699
Si      25.62969772       4.81888716      21.18718705       0.00000785       0.00005417      -0.00001476
Si      23.33464390       4.94922425      20.57093028       0.00000840       0.00000564      -0.00003028
Si      20.47899439       2.95035627      20.46255251       0.00000741      -0.00001752       0.00002962
Si      17.34881308       4.50727060      21.26053267      -0.00011036       0.00000670      -0.00005442
Si      30.65009151       0.30473474      20.72655716       0.00003564       0.00005189       0.00004002
Ge      32.35179232       1.82790307      20.06334122      -0.00001431      -0.00000049      -0.00007805
Si      28.70171383       1.27186844      19.86092652       0.00005089       0.00000408      -0.00001631
Si      25.39708478       2.35523573      20.83193979       0.00007838      -0.00000517       0.00007039
Si      27.05399366       0.78728572      21.40645254       0.00014328      -0.00005265       0.00000663
Si      21.40572553       1.15894677      19.27704605       0.00009229       0.00001059      -0.00000141
Ge      17.51099946       0.14689264      19.28040640       0.00007192       0.00006408      -0.00008480
Si      16.49369053       2.17715803      20.24898855      -0.00000648      -0.00003243       0.00006410
Si      30.87111390      15.18259041      16.45482819      -0.00004323       0.00007719       0.00003103
Si      27.56534820      16.07655231      17.87160697       0.00002064      -0.00002279       0.00004350
Si      25.36221298      15.68866082      17.09316527       0.00000596      -0.00007922       0.00001175
Si      21.94704424      13.88889869      18.16462029       0.00005442      -0.00003327      -0.00000420
Si      23.75255832      15.31925321      18.76221420       0.00000788      -0.00000839       0.00002616
Si      17.45473576      14.38320143      17.42149213       0.00004459       0.00002209      -0.00005097
Si      31.08269165      12.87268946      16.94394438      -0.00006672       0.00007881       0.00001867
Si      26.57435552      12.42354265      18.58752843       0.00000802      -0.00005441      -0.00002278
Si      25.86066514      13.39114417      16.64803741      -0.00008743      -0.00004667      -0.00001386
Si      17.14095437      12.07851079      16.96540639      -0.00002020       0.00011009      -0.00003182
Si      27.50732391      13.76538559      15.08010236      -0.00012453       0.00002453       0.00009635
Si      30.55256951      10.25069913      23.85459581      -0.00009581       0.00009982       0.00009710
Si      21.48921365      11.04421351      22.25787664       0.00000308      -0.00002890      -0.00000276
Si      31.29304371      13.94773306      27.41069460      -0.00006440       0.00000790       0.00008558
Si      29.21104946      14.91095523      27.99777509      -0.00009436       0.00004934       0.00004650
Si      25.59897369      13.68302102      28.66513608      -0.00007736       0.00010739      -0.00001945
Si      24.64096981      15.81905865      28.46122262      -0.00001171       0.00001669       0.00002927
Si      20.89764055      14.01077960      29.62645308      -0.00005617      -0.00002578       0.00004954
Ge      20.84281587      15.12549263      27.39500206      -0.00017300       0.00012736      -0.00001021
Si      17.70685567      15.56497205      28.49694217      -0.00001527       0.00005061      -0.00002757
Si      31.53630167      11.62488998      27.55999712      -0.00010775      -0.00005061       0.00007019
Si      31.19585907      10.97970192      29.78391761      -0.00006690      -0.00005709       0.00006140
Si      23.87515338      12.01459234      28.26956132       0.00013819       0.00013133       0.00006368
Si      21.97920043      11.88178686      29.71430697       0.00000124       0.00006535       0.00000550
Si      31.47279964       8.61644087      29.98204263       0.00001400       0.00002248      -0.00001695
Si      28.28207938       8.20527971      28.50781812       0.00003075       0.00004274      -0.00005861
Ge      27.50714685      10.41919480      28.62230452      -0.00003287       0.00008255       0.00002838
Si      25.20372270      10.19146797      29.00687385       0.00003471      -0.00000999       0.00007489
Ge      19.95504999      10.09344150      27.30731451       0.00005248      -0.00005456      -0.00000868
Si      20.53059175      10.04215344      29.64895645       0.00004891       0.00003981       0.00003019
Si      17.62215752      10.30812836      27.95548881      -0.00000429      -0.00001666      -0.00002460
Si      16.51252271       8.25912134      27.90497344       0.00003124       0.00000936       0.00011150
Ge      31.68536657       7.18880668      28.07606212      -0.00002512       0.00004547       0.00000306
Si      24.58947442       8.06273159      28.31296912      -0.00000122      -0.00002361       0.00010192
Si      26.55183154       6.67395571      28.53354968       0.00005186      -0.00002677       0.00005619
Si      23.34552634       7.04293806      29.95514714      -0.00000384       0.00000161       0.00005103
Si      18.98706312       2.55357113      31.30248993       0.00006977      -0.00004413       0.00004568
Si      20.18397845       6.71550092      28.14008709      -0.00001790      -0.00007069       0.00005571
Si      23.49494220       0.34658068      32.47325964      -0.00006627       0.00004336      -0.00004284
Si      29.16318868       2.61987909      30.91828318      -0.00001219       0.00006540      -0.00004411
Ge      28.94520471      11.18644531      30.46178753      -0.00002974      -0.00000117       0.00004758
Si      28.53920711      13.30077792      31.42309319       0.00002101       0.00003929       0.00004390
Ge      25.28365406      10.96121774      31.26363135      -0.00006213      -0.00002291      -0.00001991
Si      26.27959196      13.08704996      30.87061596      -0.00003259      -0.00001464      -0.00005726
Ge      23.14798114      13.32167121      32.76213972      -0.00005452       0.00004629      -0.00001353
Si      22.97310710      11.22152665      31.74258723      -0.00000571       0.00004586       0.00003367
Si      17.57907294      12.62533716      31.14882885       0.00000891       0.00002405      -0.00000501
Si      28.60239234       9.54570212      32.18161353       0.00001037      -0.00004671       0.00004573
Si      18.26392305      10.56724998      30.24681183       0.00000116       0.00007206       0.00000317
Si      16.89197001       9.12610622      31.53670749       0.00007545      -0.00000397       0.00006379
Si      28.96288544       5.94786282      31.32336438       0.00004456      -0.00010360       0.00006341
Si      29.31894388       8.04322623      30.58066398       0.00004706       0.00001503       0.00002563
Si      26.70227315       5.67936056      30.68681736       0.00000090      -0.00001178       0.00004788
Si      24.77785639       6.61765018      31.76623257      -0.00011147       0.00006439       0.00000405
Si      19.92877132       6.63505105      31.77708640      -0.00003500       0.00002316      -0.00003389
Si      21.11300904       7.75474918      30.05853191      -0.00002771       0.00004748       0.00000986
Ge      17.66672533       6.86040403      31.06730434      -0.00004316      -0.00003674       0.00003259
Si      30.56649318       4.48305416      30.41106624       0.00000493       0.00003805      -0.00005009
Si      26.84777294       3.31272383      31.05275920      -0.00000017       0.00003463       0.00010308
Si      22.54241471       3.95238068      31.35591963      -0.00005889      -0.00001037      -0.00003761
Si      20.37771885       4.30439079      32.14198188      -0.00000518       0.00005068       0.00001882
Si      16.37447291       4.95118740      31.75433699      -0.00000159       0.00000676       0.00004892
Si      17.03213870       3.28141999      30.17271374      -0.00000481      -0.00002361       0.00005519
Si      22.95439961       1.75959357      30.69478171      -0.00002092       0.00004025       0.00000879
Si      17.64015961      12.72737656      22.58819437       0.00003883      -0.00003947       0.00001488
Si      17.90397199       6.52779313      28.67873899      -0.00001223       0.00000494       0.00005280
Si      24.91060731       3.69901375      28.00555005       0.00003663       0.00002329       0.00006796
Si      26.19056320       5.88107874      25.09060620      -0.00004580      -0.00005818      -0.00000673
Si      23.98315408       6.61287529      24.86864716      -0.00006806       0.00005097       0.00003371
Si      20.92016957       8.10394230      26.40472446      -0.00001415      -0.00007498       0.00006253
Si      29.08328990       3.81324058      26.92522869       0.00003724       0.00009537       0.00011775
Si      29.98958599       4.52268536      24.87299502       0.00007757       0.00004543       0.00007498
Si      26.83919066       4.82944908      27.11716553       0.00007655      -0.00000836       0.00000460
Si      23.77257857       3.03620625      26.06638364       0.00000194       0.00000743       0.00005952
Si      22.48634259       4.92124609      25.49569057      -0.00001586       0.00000488       0.00006249
Si      18.45290322       2.91636418      26.56232779       0.00002662      -0.00010548       0.00003661
Si      29.23039192       1.38242357      27.11889314       0.00003376       0.00005079      -0.00001689
Si      27.16628953       0.36094719      27.02327464       0.00002455      -0.00005295       0.00003419
Si      26.54693094       0.68225315      24.76253493       0.00008041       0.00007261       0.00002678
Si      22.01405480       1.54223710      26.41604821      -0.00001916      -0.00004685       0.00005989
Si      17.32752449       0.84726048      26.31238945      -0.00000858      -0.00003350      -0.00001195
Si      30.27260589      15.64697750      23.82001630      -0.00001802       0.00006597      -0.00003784
Si      29.65040940      13.69033373      22.63822349      -0.00003287       0.00002644      -0.00005568
Si      23.11367925      14.56129608      22.83502141      -0.00002360      -0.00001690       0.00006280
Si      19.36966628      14.11313039      23.41429756      -0.00003512       0.00009305      -0.00005038
Si      18.74250443      16.31133987      22.79429888       0.00010698      -0.00002961       0.00009978
Si      31.43089747      12.12938304      22.82845276       0.00005973       0.00011022       0.00004198
Si      27.36978447      13.30442644      23.08263658      -0.00013240       0.00006996      -0.00005800
Si      26.91443574      11.04822995      22.85822278      -0.00004621       0.00005842       0.00001032
Si      21.19930279      13.42521463      22.11521984      -0.00000748      -0.00005472       0.00001591
Si      29.75231174       6.87000555      25.02438706       0.00003284      -0.00000253      -0.00001034
Si      30.91100744       4.84809628      28.15537461      -0.00000532       0.00000836      -0.00002602
Si      27.53728611       7.74950111      24.69180154       0.00000268       0.00000047       0.00003735
Si      24.22462262      10.11377187      25.10903583      -0.00002335      -0.00000733       0.00000968
Si      23.16062319       4.83654758      29.22162997       0.00000622       0.00001605       0.00006361
Si      21.44590080       4.83233127      27.64783084       0.00004536      -0.00010639       0.00000748
Ge      17.05510547       4.37540456      27.92043164      -0.00003875      -0.00007843       0.00006234
Si      30.20763104       1.25646425      29.26342235       0.00002606       0.00001704      -0.00008061
Si      32.43005394       1.39628228      28.45914478       0.00005522      -0.00006510       0.00002440
Si      26.24713896       0.20581612      29.16700814       0.00001329       0.00006292      -0.00000125
Si      25.21202057       2.18367734      29.77327781       0.00004819      -0.00008567       0.00005789
Si      20.48543861       2.70096219      27.75916593       0.00001814       0.00003179       0.00002942
Si      20.61776060       1.58254757      29.82802456       0.00000543       0.00002596       0.00008999
Si      31.89068422      14.83415950      25.31810965       0.00005216       0.00000720       0.00008718
Ge      26.37225523      14.39706856      24.99421352      -0.00005965       0.00003766       0.00000015
Ge      23.10382422      15.66615283      26.61090439      -0.00003700       0.00007419      -0.00005615
Si      23.95561570      14.04640913      24.99958179      -0.00004322       0.00004542      -0.00003411
Si      19.63635814      13.78203880      25.75449782       0.00002051       0.00003104       0.00002276
Si      17.45934400      14.09788352      26.63327451      -0.00006864       0.00001761       0.00003859
Si      27.37992975      13.64392534      27.06699742      -0.00005916       0.00003486       0.00006353
Si      27.87798839      11.36552728      26.50422362       0.00001105      -0.00000867       0.00006197
Ge      23.14597171      12.01534072      25.99585043       0.00004906      -0.00003230      -0.00004663
Si      20.72502801      11.71186892      25.75140852       0.00007372       0.00000922       0.00000473
Si      16.38725771      12.04402781      26.98518130       0.00006457      -0.00006594      -0.00000458
Si      30.04970037      10.51180152      26.14835310       0.00001077       0.00002443       0.00000878
Si      29.94403787       8.25915992      26.88405532       0.00002508       0.00013545       0.00006204
Si      26.60596710      10.02532531      24.98298333       0.00002626       0.00005512       0.00004613
Si      23.33353105       8.28886669      26.32480348       0.00002153       0.00002665      -0.00001636
Si      32.38704053      12.20842697      31.50009152       0.00013239      -0.00007095       0.00004448
Si      28.71620651      15.59053146      15.83730049      -0.00001631       0.00001354      -0.00006704
Si      20.93345169      13.93544100      16.00488448       0.00002819      -0.00000716       0.00006575
Ge      23.68380907       0.42474856       7.42170087       0.00004290       0.00001781       0.00000616
Si      21.54668584       1.64621945       6.71017044       0.00002919       0.00002391      -0.00002909
Si      16.61475873       0.25643842       7.56362825       0.00003264      -0.00002170       0.00001798
Si      29.69038740      14.51328730       4.25563206       0.00001318      -0.00000092      -0.00007829
Si      24.36299474      13.71598216       3.31395001      -0.00001380       0.00000906      -0.00001379
Si      24.38977182      16.09292294       3.28866180      -0.00014935       0.00001296       0.00006944
Si      20.76203442      15.71663473       4.63155790       0.00011619      -0.00000826       0.00006098
Si      30.34814671      12.22430262       4.14803142       0.00000790      -0.00004263      -0.00000501
Si      32.67630513      12.03283203       4.37157195       0.00002755      -0.00005767      -0.00000428
Si      24.21059979      12.34502022       5.22810911      -0.00001785       0.00000294      -0.00005483
Si      18.69686973      12.92540027       2.74867734      -0.00003848       0.00001577       0.00006234
Si      17.06091098      13.41715962       4.40749389      -0.00006211       0.00000223      -0.00004549
Si      24.96009888      10.09712277       5.24230447       0.00002465      -0.00000709      -0.00003288
Si      27.13287183      10.11181817       4.35560081       0.00001014      -0.00011908      -0.00003184
Si      23.24247957       9.13293393       3.96771935      -0.00004030       0.00000605      -0.00005287
Si      19.83681968      10.89023490       3.15051340       0.00004643      -0.00000437       0.00002033
Si      20.43093242      10.65064881       5.38371286       0.00002960       0.00010030      -0.00002474
Si      21.34570672       8.48155376       5.27098345      -0.00000497      -0.00001311       0.00003970
Si      31.61321867       8.10564383       5.34406265      -0.00002980       0.00001240       0.00002480
Ge      27.74176167       7.82181668       4.64691225       0.00001762      -0.00007337      -0.00000138
Si      29.89740282       6.97035042       4.18025671      -0.00001598       0.00001157       0.00005096
Ge      26.32231282       6.33047134       3.42433379      -0.00011210      -0.00002376      -0.00001768
Si      20.00558189       6.74021793       4.36194674      -0.00008437      -0.00005735       0.00004961
Si      25.73789094       1.61543996       8.07074238       0.00002142       0.00000868      -0.00002463
Si      17.84625078       7.42621536       3.63606485       0.00005215       0.00004676      -0.00006325
Si      27.02684266       1.12922744       6.16869699       0.00000623      -0.00010838      -0.00001648
Si      17.87408017       3.96008801       5.89611756      -0.00004798       0.00005825       0.00004516
Si      28.23636047      12.40920546       7.43203192       0.00003476      -0.00007161      -0.00002711
Ge      28.98197224      10.99299010       5.68735008       0.00002500      -0.00003076       0.00000472
Si      26.01544080      12.59717407       8.05261596      -0.00000028      -0.00010344      -0.00000395
Si      22.14230978      11.98761239       6.29900251       0.00002913      -0.00001460      -0.00002688
Si      16.66715928      11.75168274       5.98563407       0.00006071       0.00009703       0.00005423
Si      18.78607292      11.38943385       6.86193066      -0.00007292       0.00008272      -0.00005732
Si      30.33962213       9.39321777       6.82999883       0.00000440      -0.00006629      -0.00004388
Si      32.13492067      10.07494563       8.18663009      -0.00006852      -0.00001880      -0.00001497
Si      25.13269314       8.68154383       7.19489506      -0.00005236      -0.00001687       0.00000297
Si      32.43586673       6.02344021       6.06118888       0.00004593       0.00003623       0.00001506
Ge      27.19102294       7.47761965       7.00553631      -0.00000308      -0.00001765       0.00001935
Si      23.62936057       7.08001867       8.14296793      -0.00006557      -0.00005034      -0.00000351
Si      21.58941524       7.88260333       7.49522936      -0.00007001      -0.00002255       0.00006116
Si      19.86840690       6.40270845       7.91306596      -0.00005330      -0.00001528      -0.00006075
Si      16.65455483       7.94114600       5.61730811       0.00002647      -0.00001470      -0.00001464
Si      18.02084410       7.83040825       7.62775735       0.00004211      -0.00007593      -0.00002640
Si      31.32850117       5.12918342       7.94443539       0.00007927       0.00006187       0.00002182
Si      29.12694460       4.15476205       7.32974989       0.00010947      -0.00003868      -0.00005924
Si      26.92174370       5.11064335       7.08338302       0.00008250      -0.00002758       0.00000759
Si      23.30332340       4.71323901       7.96796048      -0.00008225      -0.00002450       0.00006151
Si      22.02856928       3.91402838       6.16168559      -0.00002351      -0.00000307       0.00000598
Si      19.95368930       5.07157733       5.99683307       0.00000539      -0.00007988       0.00006178
Si      17.00074668       3.97420836       8.17670382      -0.00001758      -0.00003791      -0.00006349
Si      29.21747431       1.83290413       6.75054739       0.00003765      -0.00002723       0.00001852
Si      17.63029439      15.07525064       5.98054932      -0.00006094       0.00004787       0.00010357
Ge      31.79153849       3.93010766       4.86386731       0.00012904       0.00002090       0.00007776
Si      28.19013043       3.27581037       3.37809537      -0.00001878      -0.00005011      -0.00004546
Ge      24.59447603       8.38180053       0.57477048      -0.00003506       0.00000435      -0.00000693
Si      22.10661290      10.69140870       2.49487353       0.00000145       0.00004189       0.00007938
Si      22.38802580       9.45911393       0.48691061      -0.00005665       0.00002646       0.00004740
Ge      17.16357479      10.15695148       0.96000782      -0.00003236       0.00006811       0.00002628
Si      18.84317527       9.01453734       2.15298564       0.00003515       0.00001454      -0.00005315
Si      30.55171511       7.27052591       1.95721939       0.00005667      -0.00000351       0.00003869
Si      29.36987170       5.58506620       0.81055073       0.00002471      -0.00003643       0.00010424
Si      23.15783577       5.49617965       2.47226448      -0.00000539      -0.00001088       0.00003853
Si      24.35730275       7.46823112       2.73121887      -0.00002312       0.00001877       0.00014824
Si      20.54880483       7.90779140       0.89748370       0.00000349       0.00000467       0.00000885
Si      20.93612247       6.06578259       2.36090430       0.00000213       0.00003973       0.00008149