 1166

    1
0.0000000000e+00 0.0000000000e+00 0.0000000000e+00
0.0000000000e+00 0.0000000000e+00 0.0000000000e+00
     1      1      1
 1  1  1     0.0000000000e+00
 1  1  2     0.0000000000e+00
 1  1  3     0.0000000000e+00
 1  2  1     0.0000000000e+00
 1  2  2     0.0000000000e+00
 1  2  3     3.2891624043e+01
 1  3  1     0.0000000000e+00
 1  3  2     3.2891624043e+01
 1  3  3     0.0000000000e+00
 2  1  1     0.0000000000e+00
 2  1  2     0.0000000000e+00
 2  1  3     3.2891624043e+01
 2  2  1     0.0000000000e+00
 2  2  2     0.0000000000e+00
 2  2  3     0.0000000000e+00
 2  3  1     3.2891624043e+01
 2  3  2     0.0000000000e+00
 2  3  3     0.0000000000e+00
 3  1  1     0.0000000000e+00
 3  1  2     3.2891624043e+01
 3  1  3     0.0000000000e+00
 3  2  1     3.2891624043e+01
 3  2  2     0.0000000000e+00
 3  2  3     0.0000000000e+00
 3  3  1     0.0000000000e+00
 3  3  2     0.0000000000e+00
 3  3  3     0.0000000000e+00

    2
0.0000000000e+00 0.0000000000e+00 0.0000000000e+00
0.0000000000e+00 0.0000000000e+00 0.0000000000e+00
     1      1      2
 1  1  1    -3.0583273298e+00
 1  1  2    -6.1953998749e+00
 1  1  3    -6.1953998749e+00
 1  2  1    -6.0404011226e+00
 1  2  2    -6.0404011226e+00
 1  2  3    -8.1459613496e+00
 1  3  1    -6.0404011226e+00
 1  3  2    -8.1459613496e+00
 1  3  3    -6.0404011226e+00
 2  1  1    -6.0404011226e+00
 2  1  2    -6.0404011226e+00
 2  1  3    -8.1459613496e+00
 2  2  1    -6.1953998749e+00
 2  2  2    -3.0583273298e+00
 2  2  3    -6.1953998749e+00
 2  3  1    -8.1459613496e+00
 2  3  2    -6.0404011226e+00
 2  3  3    -6.0404011226e+00
 3  1  1    -6.0404011226e+00
 3  1  2    -8.1459613496e+00
 3  1  3    -6.0404011226e+00
 3  2  1    -8.1459613496e+00
 3  2  2    -6.0404011226e+00
 3  2  3    -6.0404011226e+00
 3  3  1    -6.1953998749e+00
 3  3  2    -6.1953998749e+00
 3  3  3    -3.0583273298e+00

    3
0.0000000000e+00 0.0000000000e+00 0.0000000000e+00
-2.6996850215e+00 0.0000000000e+00 2.6996850215e+00
     1      1      1
 1  1  1     2.5068256801e-02
 1  1  2     1.0286491736e-01
 1  1  3    -8.7247583898e-02
 1  2  1     2.0395066406e-02
 1  2  2    -1.7040816837e-01
 1  2  3     5.6205266334e-02
 1  3  1    -1.0351538591e-01
 1  3  2    -1.0370440299e-01
 1  3  3     1.0351538591e-01
 2  1  1     2.0395066406e-02
 2  1  2    -1.7040816837e-01
 2  1  3     5.6205266334e-02
 2  2  1    -1.2398103269e-01
 2  2  2    -1.7921574160e-02
 2  2  3     1.2398103269e-01
 2  3  1     5.6205266334e-02
 2  3  2     1.7040816837e-01
 2  3  3     2.0395066406e-02
 3  1  1    -1.0351538591e-01
 3  1  2    -1.0370440299e-01
 3  1  3     1.0351538591e-01
 3  2  1     5.6205266334e-02
 3  2  2     1.7040816837e-01
 3  2  3     2.0395066406e-02
 3  3  1     8.7247583898e-02
 3  3  2     1.0286491736e-01
 3  3  3    -2.5068256801e-02

    4
0.0000000000e+00 0.0000000000e+00 0.0000000000e+00
-2.6996850215e+00 0.0000000000e+00 2.6996850215e+00
     1      1      2
 1  1  1     7.1348115511e-02
 1  1  2     3.5799487165e-02
 1  1  3     4.7982562280e-02
 1  2  1    -1.2185997383e-01
 1  2  2     1.2185997383e-01
 1  2  3     3.3419650184e-02
 1  3  1    -1.2406636855e-01
 1  3  2    -4.5050470286e-02
 1  3  3     2.5730759334e-02
 2  1  1    -1.2185997383e-01
 2  1  2     1.2185997383e-01
 2  1  3     3.3419650184e-02
 2  2  1    -3.5799487165e-02
 2  2  2    -7.1348115511e-02
 2  2  3     4.7982562280e-02
 2  3  1    -4.5050470286e-02
 2  3  2    -1.2406636855e-01
 2  3  3    -2.5730759334e-02
 3  1  1    -1.2406636855e-01
 3  1  2    -4.5050470286e-02
 3  1  3     2.5730759334e-02
 3  2  1    -4.5050470286e-02
 3  2  2    -1.2406636855e-01
 3  2  3    -2.5730759334e-02
 3  3  1     4.2756903739e-02
 3  3  2    -4.2756903739e-02
 3  3  3     7.7133097850e-03

    5
0.0000000000e+00 0.0000000000e+00 0.0000000000e+00
2.6996850215e+00 0.0000000000e+00 -2.6996850215e+00
     1      1      1
 1  1  1    -2.5068256801e-02
 1  1  2     1.0286491736e-01
 1  1  3     8.7247583898e-02
 1  2  1     2.0395066406e-02
 1  2  2     1.7040816837e-01
 1  2  3     5.6205266334e-02
 1  3  1     1.0351538591e-01
 1  3  2    -1.0370440299e-01
 1  3  3    -1.0351538591e-01
 2  1  1     2.0395066406e-02
 2  1  2     1.7040816837e-01
 2  1  3     5.6205266334e-02
 2  2  1     1.2398103269e-01
 2  2  2    -1.7921574160e-02
 2  2  3    -1.2398103269e-01
 2  3  1     5.6205266334e-02
 2  3  2    -1.7040816837e-01
 2  3  3     2.0395066406e-02
 3  1  1     1.0351538591e-01
 3  1  2    -1.0370440299e-01
 3  1  3    -1.0351538591e-01
 3  2  1     5.6205266334e-02
 3  2  2    -1.7040816837e-01
 3  2  3     2.0395066406e-02
 3  3  1    -8.7247583898e-02
 3  3  2     1.0286491736e-01
 3  3  3     2.5068256801e-02

    6
0.0000000000e+00 0.0000000000e+00 0.0000000000e+00
2.6996850215e+00 0.0000000000e+00 -2.6996850215e+00
     1      1      2
 1  1  1     7.7133097850e-03
 1  1  2    -4.2756903739e-02
 1  1  3     4.2756903739e-02
 1  2  1    -2.5730759334e-02
 1  2  2    -1.2406636855e-01
 1  2  3    -4.5050470286e-02
 1  3  1     2.5730759334e-02
 1  3  2    -4.5050470286e-02
 1  3  3    -1.2406636855e-01
 2  1  1    -2.5730759334e-02
 2  1  2    -1.2406636855e-01
 2  1  3    -4.5050470286e-02
 2  2  1     4.7982562280e-02
 2  2  2    -7.1348115511e-02
 2  2  3    -3.5799487165e-02
 2  3  1     3.3419650184e-02
 2  3  2     1.2185997383e-01
 2  3  3    -1.2185997383e-01
 3  1  1     2.5730759334e-02
 3  1  2    -4.5050470286e-02
 3  1  3    -1.2406636855e-01
 3  2  1     3.3419650184e-02
 3  2  2     1.2185997383e-01
 3  2  3    -1.2185997383e-01
 3  3  1     4.7982562280e-02
 3  3  2     3.5799487165e-02
 3  3  3     7.1348115511e-02

    7
0.0000000000e+00 0.0000000000e+00 0.0000000000e+00
0.0000000000e+00 2.6996850215e+00 2.6996850215e+00
     1      1      1
 1  1  1     1.7921574160e-02
 1  1  2     1.2398103269e-01
 1  1  3     1.2398103269e-01
 1  2  1     1.7040816837e-01
 1  2  2    -2.0395066406e-02
 1  2  3     5.6205266334e-02
 1  3  1     1.7040816837e-01
 1  3  2     5.6205266334e-02
 1  3  3    -2.0395066406e-02
 2  1  1     1.7040816837e-01
 2  1  2    -2.0395066406e-02
 2  1  3     5.6205266334e-02
 2  2  1    -1.0286491736e-01
 2  2  2    -2.5068256801e-02
 2  2  3    -8.7247583898e-02
 2  3  1    -1.0370440299e-01
 2  3  2    -1.0351538591e-01
 2  3  3    -1.0351538591e-01
 3  1  1     1.7040816837e-01
 3  1  2     5.6205266334e-02
 3  1  3    -2.0395066406e-02
 3  2  1    -1.0370440299e-01
 3  2  2    -1.0351538591e-01
 3  2  3    -1.0351538591e-01
 3  3  1    -1.0286491736e-01
 3  3  2    -8.7247583898e-02
 3  3  3    -2.5068256801e-02

    8
0.0000000000e+00 0.0000000000e+00 0.0000000000e+00
-2.6996850215e+00 -5.3993700430e+00 -2.6996850215e+00
     1      1      2
 1  1  1     7.1348115511e-02
 1  1  2    -4.7982562280e-02
 1  1  3    -3.5799487165e-02
 1  2  1     1.2406636855e-01
 1  2  2     2.5730759334e-02
 1  2  3    -4.5050470286e-02
 1  3  1     1.2185997383e-01
 1  3  2     3.3419650184e-02
 1  3  3     1.2185997383e-01
 2  1  1     1.2406636855e-01
 2  1  2     2.5730759334e-02
 2  1  3    -4.5050470286e-02
 2  2  1     4.2756903739e-02
 2  2  2    -7.7133097850e-03
 2  2  3     4.2756903739e-02
 2  3  1    -4.5050470286e-02
 2  3  2     2.5730759334e-02
 2  3  3     1.2406636855e-01
 3  1  1     1.2185997383e-01
 3  1  2     3.3419650184e-02
 3  1  3     1.2185997383e-01
 3  2  1    -4.5050470286e-02
 3  2  2     2.5730759334e-02
 3  2  3     1.2406636855e-01
 3  3  1    -3.5799487165e-02
 3  3  2    -4.7982562280e-02
 3  3  3     7.1348115511e-02

    9
0.0000000000e+00 0.0000000000e+00 0.0000000000e+00
2.6996850215e+00 2.6996850215e+00 -7.0497413582e-16
     1      1      1
 1  1  1    -2.5068256801e-02
 1  1  2    -8.7247583898e-02
 1  1  3    -1.0286491736e-01
 1  2  1    -1.0351538591e-01
 1  2  2    -1.0351538591e-01
 1  2  3    -1.0370440299e-01
 1  3  1    -2.0395066406e-02
 1  3  2     5.6205266334e-02
 1  3  3     1.7040816837e-01
 2  1  1    -1.0351538591e-01
 2  1  2    -1.0351538591e-01
 2  1  3    -1.0370440299e-01
 2  2  1    -8.7247583898e-02
 2  2  2    -2.5068256801e-02
 2  2  3    -1.0286491736e-01
 2  3  1     5.6205266334e-02
 2  3  2    -2.0395066406e-02
 2  3  3     1.7040816837e-01
 3  1  1    -2.0395066406e-02
 3  1  2     5.6205266334e-02
 3  1  3     1.7040816837e-01
 3  2  1     5.6205266334e-02
 3  2  2    -2.0395066406e-02
 3  2  3     1.7040816837e-01
 3  3  1     1.2398103269e-01
 3  3  2     1.2398103269e-01
 3  3  3     1.7921574160e-02

   10
0.0000000000e+00 0.0000000000e+00 0.0000000000e+00
0.0000000000e+00 -2.6996850215e+00 -2.6996850215e+00
     1      1      1
 1  1  1     1.7921574160e-02
 1  1  2    -1.2398103269e-01
 1  1  3    -1.2398103269e-01
 1  2  1    -1.7040816837e-01
 1  2  2    -2.0395066406e-02
 1  2  3     5.6205266334e-02
 1  3  1    -1.7040816837e-01
 1  3  2     5.6205266334e-02
 1  3  3    -2.0395066406e-02
 2  1  1    -1.7040816837e-01
 2  1  2    -2.0395066406e-02
 2  1  3     5.6205266334e-02
 2  2  1    -1.0286491736e-01
 2  2  2     2.5068256801e-02
 2  2  3     8.7247583898e-02
 2  3  1    -1.0370440299e-01
 2  3  2     1.0351538591e-01
 2  3  3     1.0351538591e-01
 3  1  1    -1.7040816837e-01
 3  1  2     5.6205266334e-02
 3  1  3    -2.0395066406e-02
 3  2  1    -1.0370440299e-01
 3  2  2     1.0351538591e-01
 3  2  3     1.0351538591e-01
 3  3  1    -1.0286491736e-01
 3  3  2     8.7247583898e-02
 3  3  3     2.5068256801e-02

   11
0.0000000000e+00 0.0000000000e+00 0.0000000000e+00
0.0000000000e+00 -2.6996850215e+00 -2.6996850215e+00
     1      1      2
 1  1  1    -3.0583273298e+00
 1  1  2     6.1953998749e+00
 1  1  3     6.1953998749e+00
 1  2  1     6.0404011226e+00
 1  2  2    -6.0404011226e+00
 1  2  3    -8.1459613496e+00
 1  3  1     6.0404011226e+00
 1  3  2    -8.1459613496e+00
 1  3  3    -6.0404011226e+00
 2  1  1     6.0404011226e+00
 2  1  2    -6.0404011226e+00
 2  1  3    -8.1459613496e+00
 2  2  1    -6.1953998749e+00
 2  2  2     3.0583273298e+00
 2  2  3     6.1953998749e+00
 2  3  1    -8.1459613496e+00
 2  3  2     6.0404011226e+00
 2  3  3     6.0404011226e+00
 3  1  1     6.0404011226e+00
 3  1  2    -8.1459613496e+00
 3  1  3    -6.0404011226e+00
 3  2  1    -8.1459613496e+00
 3  2  2     6.0404011226e+00
 3  2  3     6.0404011226e+00
 3  3  1    -6.1953998749e+00
 3  3  2     6.1953998749e+00
 3  3  3     3.0583273298e+00

   12
0.0000000000e+00 0.0000000000e+00 0.0000000000e+00
-2.6996850215e+00 -2.6996850215e+00 -2.9972524701e-16
     1      1      1
 1  1  1     2.5068256801e-02
 1  1  2     8.7247583898e-02
 1  1  3    -1.0286491736e-01
 1  2  1     1.0351538591e-01
 1  2  2     1.0351538591e-01
 1  2  3    -1.0370440299e-01
 1  3  1    -2.0395066406e-02
 1  3  2     5.6205266334e-02
 1  3  3    -1.7040816837e-01
 2  1  1     1.0351538591e-01
 2  1  2     1.0351538591e-01
 2  1  3    -1.0370440299e-01
 2  2  1     8.7247583898e-02
 2  2  2     2.5068256801e-02
 2  2  3    -1.0286491736e-01
 2  3  1     5.6205266334e-02
 2  3  2    -2.0395066406e-02
 2  3  3    -1.7040816837e-01
 3  1  1    -2.0395066406e-02
 3  1  2     5.6205266334e-02
 3  1  3    -1.7040816837e-01
 3  2  1     5.6205266334e-02
 3  2  2    -2.0395066406e-02
 3  2  3    -1.7040816837e-01
 3  3  1    -1.2398103269e-01
 3  3  2    -1.2398103269e-01
 3  3  3     1.7921574160e-02

   13
0.0000000000e+00 0.0000000000e+00 0.0000000000e+00
-2.6996850215e+00 -2.6996850215e+00 -2.9972524701e-16
     1      1      2
 1  1  1     3.0583273298e+00
 1  1  2     6.1953998749e+00
 1  1  3    -6.1953998749e+00
 1  2  1     6.0404011226e+00
 1  2  2     6.0404011226e+00
 1  2  3    -8.1459613496e+00
 1  3  1    -6.0404011226e+00
 1  3  2    -8.1459613496e+00
 1  3  3     6.0404011226e+00
 2  1  1     6.0404011226e+00
 2  1  2     6.0404011226e+00
 2  1  3    -8.1459613496e+00
 2  2  1     6.1953998749e+00
 2  2  2     3.0583273298e+00
 2  2  3    -6.1953998749e+00
 2  3  1    -8.1459613496e+00
 2  3  2    -6.0404011226e+00
 2  3  3     6.0404011226e+00
 3  1  1    -6.0404011226e+00
 3  1  2    -8.1459613496e+00
 3  1  3     6.0404011226e+00
 3  2  1    -8.1459613496e+00
 3  2  2    -6.0404011226e+00
 3  2  3     6.0404011226e+00
 3  3  1     6.1953998749e+00
 3  3  2     6.1953998749e+00
 3  3  3    -3.0583273298e+00

   14
0.0000000000e+00 0.0000000000e+00 0.0000000000e+00
-2.6996850215e+00 2.6996850215e+00 0.0000000000e+00
     1      1      1
 1  1  1     2.5068256801e-02
 1  1  2    -8.7247583898e-02
 1  1  3     1.0286491736e-01
 1  2  1    -1.0351538591e-01
 1  2  2     1.0351538591e-01
 1  2  3    -1.0370440299e-01
 1  3  1     2.0395066406e-02
 1  3  2     5.6205266334e-02
 1  3  3    -1.7040816837e-01
 2  1  1    -1.0351538591e-01
 2  1  2     1.0351538591e-01
 2  1  3    -1.0370440299e-01
 2  2  1     8.7247583898e-02
 2  2  2    -2.5068256801e-02
 2  2  3     1.0286491736e-01
 2  3  1     5.6205266334e-02
 2  3  2     2.0395066406e-02
 2  3  3     1.7040816837e-01
 3  1  1     2.0395066406e-02
 3  1  2     5.6205266334e-02
 3  1  3    -1.7040816837e-01
 3  2  1     5.6205266334e-02
 3  2  2     2.0395066406e-02
 3  2  3     1.7040816837e-01
 3  3  1    -1.2398103269e-01
 3  3  2     1.2398103269e-01
 3  3  3    -1.7921574160e-02

   15
0.0000000000e+00 0.0000000000e+00 0.0000000000e+00
-2.6996850215e+00 2.6996850215e+00 0.0000000000e+00
     1      1      2
 1  1  1     7.1348115511e-02
 1  1  2     4.7982562280e-02
 1  1  3     3.5799487165e-02
 1  2  1    -1.2406636855e-01
 1  2  2     2.5730759334e-02
 1  2  3    -4.5050470286e-02
 1  3  1    -1.2185997383e-01
 1  3  2     3.3419650184e-02
 1  3  3     1.2185997383e-01
 2  1  1    -1.2406636855e-01
 2  1  2     2.5730759334e-02
 2  1  3    -4.5050470286e-02
 2  2  1     4.2756903739e-02
 2  2  2     7.7133097850e-03
 2  2  3    -4.2756903739e-02
 2  3  1    -4.5050470286e-02
 2  3  2    -2.5730759334e-02
 2  3  3    -1.2406636855e-01
 3  1  1    -1.2185997383e-01
 3  1  2     3.3419650184e-02
 3  1  3     1.2185997383e-01
 3  2  1    -4.5050470286e-02
 3  2  2    -2.5730759334e-02
 3  2  3    -1.2406636855e-01
 3  3  1    -3.5799487165e-02
 3  3  2     4.7982562280e-02
 3  3  3    -7.1348115511e-02

   16
0.0000000000e+00 0.0000000000e+00 0.0000000000e+00
7.0497413582e-16 2.6996850215e+00 -2.6996850215e+00
     1      1      1
 1  1  1    -1.7921574160e-02
 1  1  2     1.2398103269e-01
 1  1  3    -1.2398103269e-01
 1  2  1     1.7040816837e-01
 1  2  2     2.0395066406e-02
 1  2  3     5.6205266334e-02
 1  3  1    -1.7040816837e-01
 1  3  2     5.6205266334e-02
 1  3  3     2.0395066406e-02
 2  1  1     1.7040816837e-01
 2  1  2     2.0395066406e-02
 2  1  3     5.6205266334e-02
 2  2  1     1.0286491736e-01
 2  2  2    -2.5068256801e-02
 2  2  3     8.7247583898e-02
 2  3  1    -1.0370440299e-01
 2  3  2     1.0351538591e-01
 2  3  3    -1.0351538591e-01
 3  1  1    -1.7040816837e-01
 3  1  2     5.6205266334e-02
 3  1  3     2.0395066406e-02
 3  2  1    -1.0370440299e-01
 3  2  2     1.0351538591e-01
 3  2  3    -1.0351538591e-01
 3  3  1     1.0286491736e-01
 3  3  2    -8.7247583898e-02
 3  3  3     2.5068256801e-02

   17
0.0000000000e+00 0.0000000000e+00 0.0000000000e+00
1.4986262350e-16 2.6996850215e+00 -2.6996850215e+00
     1      1      2
 1  1  1    -7.1348115511e-02
 1  1  2     4.7982562280e-02
 1  1  3    -3.5799487165e-02
 1  2  1    -1.2406636855e-01
 1  2  2    -2.5730759334e-02
 1  2  3    -4.5050470286e-02
 1  3  1     1.2185997383e-01
 1  3  2     3.3419650184e-02
 1  3  3    -1.2185997383e-01
 2  1  1    -1.2406636855e-01
 2  1  2    -2.5730759334e-02
 2  1  3    -4.5050470286e-02
 2  2  1    -4.2756903739e-02
 2  2  2     7.7133097850e-03
 2  2  3     4.2756903739e-02
 2  3  1    -4.5050470286e-02
 2  3  2     2.5730759334e-02
 2  3  3    -1.2406636855e-01
 3  1  1     1.2185997383e-01
 3  1  2     3.3419650184e-02
 3  1  3    -1.2185997383e-01
 3  2  1    -4.5050470286e-02
 3  2  2     2.5730759334e-02
 3  2  3    -1.2406636855e-01
 3  3  1     3.5799487165e-02
 3  3  2     4.7982562280e-02
 3  3  3     7.1348115511e-02

   18
0.0000000000e+00 0.0000000000e+00 0.0000000000e+00
-2.6996850215e+00 -2.6996850215e+00 -5.3993700430e+00
     1      1      2
 1  1  1     7.1348115511e-02
 1  1  2    -3.5799487165e-02
 1  1  3    -4.7982562280e-02
 1  2  1     1.2185997383e-01
 1  2  2     1.2185997383e-01
 1  2  3     3.3419650184e-02
 1  3  1     1.2406636855e-01
 1  3  2    -4.5050470286e-02
 1  3  3     2.5730759334e-02
 2  1  1     1.2185997383e-01
 2  1  2     1.2185997383e-01
 2  1  3     3.3419650184e-02
 2  2  1    -3.5799487165e-02
 2  2  2     7.1348115511e-02
 2  2  3    -4.7982562280e-02
 2  3  1    -4.5050470286e-02
 2  3  2     1.2406636855e-01
 2  3  3     2.5730759334e-02
 3  1  1     1.2406636855e-01
 3  1  2    -4.5050470286e-02
 3  1  3     2.5730759334e-02
 3  2  1    -4.5050470286e-02
 3  2  2     1.2406636855e-01
 3  2  3     2.5730759334e-02
 3  3  1     4.2756903739e-02
 3  3  2     4.2756903739e-02
 3  3  3    -7.7133097850e-03

   19
0.0000000000e+00 0.0000000000e+00 0.0000000000e+00
-5.3993700430e+00 -2.6996850215e+00 -2.6996850215e+00
     1      1      2
 1  1  1    -7.7133097850e-03
 1  1  2     4.2756903739e-02
 1  1  3     4.2756903739e-02
 1  2  1     2.5730759334e-02
 1  2  2     1.2406636855e-01
 1  2  3    -4.5050470286e-02
 1  3  1     2.5730759334e-02
 1  3  2    -4.5050470286e-02
 1  3  3     1.2406636855e-01
 2  1  1     2.5730759334e-02
 2  1  2     1.2406636855e-01
 2  1  3    -4.5050470286e-02
 2  2  1    -4.7982562280e-02
 2  2  2     7.1348115511e-02
 2  2  3    -3.5799487165e-02
 2  3  1     3.3419650184e-02
 2  3  2     1.2185997383e-01
 2  3  3     1.2185997383e-01
 3  1  1     2.5730759334e-02
 3  1  2    -4.5050470286e-02
 3  1  3     1.2406636855e-01
 3  2  1     3.3419650184e-02
 3  2  2     1.2185997383e-01
 3  2  3     1.2185997383e-01
 3  3  1    -4.7982562280e-02
 3  3  2    -3.5799487165e-02
 3  3  3     7.1348115511e-02

   20
0.0000000000e+00 0.0000000000e+00 0.0000000000e+00
7.0497413582e-16 5.3993700430e+00 -7.0497413582e-16
     1      1      1
 1  1  1     0.0000000000e+00
 1  1  2    -2.3645790036e-02
 1  1  3     0.0000000000e+00
 1  2  1    -1.3019583910e-03
 1  2  2     0.0000000000e+00
 1  2  3    -3.6656417885e-02
 1  3  1     0.0000000000e+00
 1  3  2     1.5373834646e-02
 1  3  3     0.0000000000e+00
 2  1  1    -1.3019583910e-03
 2  1  2     0.0000000000e+00
 2  1  3    -3.6656417885e-02
 2  2  1     0.0000000000e+00
 2  2  2    -7.3919218773e-02
 2  2  3     0.0000000000e+00
 2  3  1    -3.6656417885e-02
 2  3  2     0.0000000000e+00
 2  3  3    -1.3019583910e-03
 3  1  1     0.0000000000e+00
 3  1  2     1.5373834646e-02
 3  1  3     0.0000000000e+00
 3  2  1    -3.6656417885e-02
 3  2  2     0.0000000000e+00
 3  2  3    -1.3019583910e-03
 3  3  1     0.0000000000e+00
 3  3  2    -2.3645790036e-02
 3  3  3     0.0000000000e+00

   21
0.0000000000e+00 0.0000000000e+00 0.0000000000e+00
-2.6996850215e+00 -7.0497413582e-16 -2.6996850215e+00
     1      1      1
 1  1  1     2.5068256801e-02
 1  1  2    -1.0286491736e-01
 1  1  3     8.7247583898e-02
 1  2  1    -2.0395066406e-02
 1  2  2    -1.7040816837e-01
 1  2  3     5.6205266334e-02
 1  3  1     1.0351538591e-01
 1  3  2    -1.0370440299e-01
 1  3  3     1.0351538591e-01
 2  1  1    -2.0395066406e-02
 2  1  2    -1.7040816837e-01
 2  1  3     5.6205266334e-02
 2  2  1    -1.2398103269e-01
 2  2  2     1.7921574160e-02
 2  2  3    -1.2398103269e-01
 2  3  1     5.6205266334e-02
 2  3  2    -1.7040816837e-01
 2  3  3    -2.0395066406e-02
 3  1  1     1.0351538591e-01
 3  1  2    -1.0370440299e-01
 3  1  3     1.0351538591e-01
 3  2  1     5.6205266334e-02
 3  2  2    -1.7040816837e-01
 3  2  3    -2.0395066406e-02
 3  3  1     8.7247583898e-02
 3  3  2    -1.0286491736e-01
 3  3  3     2.5068256801e-02

   22
0.0000000000e+00 0.0000000000e+00 0.0000000000e+00
-2.6996850215e+00 -7.0497413582e-16 -2.6996850215e+00
     1      1      2
 1  1  1     3.0583273298e+00
 1  1  2    -6.1953998749e+00
 1  1  3     6.1953998749e+00
 1  2  1    -6.0404011226e+00
 1  2  2     6.0404011226e+00
 1  2  3    -8.1459613496e+00
 1  3  1     6.0404011226e+00
 1  3  2    -8.1459613496e+00
 1  3  3     6.0404011226e+00
 2  1  1    -6.0404011226e+00
 2  1  2     6.0404011226e+00
 2  1  3    -8.1459613496e+00
 2  2  1     6.1953998749e+00
 2  2  2    -3.0583273298e+00
 2  2  3     6.1953998749e+00
 2  3  1    -8.1459613496e+00
 2  3  2     6.0404011226e+00
 2  3  3    -6.0404011226e+00
 3  1  1     6.0404011226e+00
 3  1  2    -8.1459613496e+00
 3  1  3     6.0404011226e+00
 3  2  1    -8.1459613496e+00
 3  2  2     6.0404011226e+00
 3  2  3    -6.0404011226e+00
 3  3  1     6.1953998749e+00
 3  3  2    -6.1953998749e+00
 3  3  3     3.0583273298e+00

   23
0.0000000000e+00 0.0000000000e+00 0.0000000000e+00
-5.3993700430e+00 -7.0497413582e-16 -2.9972524701e-16
     1      1      1
 1  1  1     7.3919218773e-02
 1  1  2     0.0000000000e+00
 1  1  3     0.0000000000e+00
 1  2  1     0.0000000000e+00
 1  2  2     1.3019583910e-03
 1  2  3    -3.6656417885e-02
 1  3  1     0.0000000000e+00
 1  3  2    -3.6656417885e-02
 1  3  3     1.3019583910e-03
 2  1  1     0.0000000000e+00
 2  1  2     1.3019583910e-03
 2  1  3    -3.6656417885e-02
 2  2  1     2.3645790036e-02
 2  2  2     0.0000000000e+00
 2  2  3     0.0000000000e+00
 2  3  1     1.5373834646e-02
 2  3  2     0.0000000000e+00
 2  3  3     0.0000000000e+00
 3  1  1     0.0000000000e+00
 3  1  2    -3.6656417885e-02
 3  1  3     1.3019583910e-03
 3  2  1     1.5373834646e-02
 3  2  2     0.0000000000e+00
 3  2  3     0.0000000000e+00
 3  3  1     2.3645790036e-02
 3  3  2     0.0000000000e+00
 3  3  3     0.0000000000e+00

   24
0.0000000000e+00 0.0000000000e+00 0.0000000000e+00
-5.3993700430e+00 -7.0497413582e-16 -2.9972524701e-16
     1      1      2
 1  1  1    -7.7133097850e-03
 1  1  2    -4.2756903739e-02
 1  1  3    -4.2756903739e-02
 1  2  1    -2.5730759334e-02
 1  2  2     1.2406636855e-01
 1  2  3    -4.5050470286e-02
 1  3  1    -2.5730759334e-02
 1  3  2    -4.5050470286e-02
 1  3  3     1.2406636855e-01
 2  1  1    -2.5730759334e-02
 2  1  2     1.2406636855e-01
 2  1  3    -4.5050470286e-02
 2  2  1    -4.7982562280e-02
 2  2  2    -7.1348115511e-02
 2  2  3     3.5799487165e-02
 2  3  1     3.3419650184e-02
 2  3  2    -1.2185997383e-01
 2  3  3    -1.2185997383e-01
 3  1  1    -2.5730759334e-02
 3  1  2    -4.5050470286e-02
 3  1  3     1.2406636855e-01
 3  2  1     3.3419650184e-02
 3  2  2    -1.2185997383e-01
 3  2  3    -1.2185997383e-01
 3  3  1    -4.7982562280e-02
 3  3  2     3.5799487165e-02
 3  3  3    -7.1348115511e-02

   25
0.0000000000e+00 0.0000000000e+00 0.0000000000e+00
7.0497413582e-16 -7.0497413582e-16 -5.3993700430e+00
     1      1      1
 1  1  1     0.0000000000e+00
 1  1  2     0.0000000000e+00
 1  1  3     2.3645790036e-02
 1  2  1     0.0000000000e+00
 1  2  2     0.0000000000e+00
 1  2  3     1.5373834646e-02
 1  3  1     1.3019583910e-03
 1  3  2    -3.6656417885e-02
 1  3  3     0.0000000000e+00
 2  1  1     0.0000000000e+00
 2  1  2     0.0000000000e+00
 2  1  3     1.5373834646e-02
 2  2  1     0.0000000000e+00
 2  2  2     0.0000000000e+00
 2  2  3     2.3645790036e-02
 2  3  1    -3.6656417885e-02
 2  3  2     1.3019583910e-03
 2  3  3     0.0000000000e+00
 3  1  1     1.3019583910e-03
 3  1  2    -3.6656417885e-02
 3  1  3     0.0000000000e+00
 3  2  1    -3.6656417885e-02
 3  2  2     1.3019583910e-03
 3  2  3     0.0000000000e+00
 3  3  1     0.0000000000e+00
 3  3  2     0.0000000000e+00
 3  3  3     7.3919218773e-02

   26
0.0000000000e+00 0.0000000000e+00 0.0000000000e+00
1.4986262350e-16 -7.0497413582e-16 -5.3993700430e+00
     1      1      2
 1  1  1    -7.1348115511e-02
 1  1  2     3.5799487165e-02
 1  1  3    -4.7982562280e-02
 1  2  1    -1.2185997383e-01
 1  2  2    -1.2185997383e-01
 1  2  3     3.3419650184e-02
 1  3  1     1.2406636855e-01
 1  3  2    -4.5050470286e-02
 1  3  3    -2.5730759334e-02
 2  1  1    -1.2185997383e-01
 2  1  2    -1.2185997383e-01
 2  1  3     3.3419650184e-02
 2  2  1     3.5799487165e-02
 2  2  2    -7.1348115511e-02
 2  2  3    -4.7982562280e-02
 2  3  1    -4.5050470286e-02
 2  3  2     1.2406636855e-01
 2  3  3    -2.5730759334e-02
 3  1  1     1.2406636855e-01
 3  1  2    -4.5050470286e-02
 3  1  3    -2.5730759334e-02
 3  2  1    -4.5050470286e-02
 3  2  2     1.2406636855e-01
 3  2  3    -2.5730759334e-02
 3  3  1    -4.2756903739e-02
 3  3  2    -4.2756903739e-02
 3  3  3    -7.7133097850e-03

   27
0.0000000000e+00 0.0000000000e+00 0.0000000000e+00
2.6996850215e+00 -2.6996850215e+00 0.0000000000e+00
     1      1      1
 1  1  1    -2.5068256801e-02
 1  1  2     8.7247583898e-02
 1  1  3     1.0286491736e-01
 1  2  1     1.0351538591e-01
 1  2  2    -1.0351538591e-01
 1  2  3    -1.0370440299e-01
 1  3  1     2.0395066406e-02
 1  3  2     5.6205266334e-02
 1  3  3     1.7040816837e-01
 2  1  1     1.0351538591e-01
 2  1  2    -1.0351538591e-01
 2  1  3    -1.0370440299e-01
 2  2  1    -8.7247583898e-02
 2  2  2     2.5068256801e-02
 2  2  3     1.0286491736e-01
 2  3  1     5.6205266334e-02
 2  3  2     2.0395066406e-02
 2  3  3    -1.7040816837e-01
 3  1  1     2.0395066406e-02
 3  1  2     5.6205266334e-02
 3  1  3     1.7040816837e-01
 3  2  1     5.6205266334e-02
 3  2  2     2.0395066406e-02
 3  2  3    -1.7040816837e-01
 3  3  1     1.2398103269e-01
 3  3  2    -1.2398103269e-01
 3  3  3    -1.7921574160e-02

   28
0.0000000000e+00 0.0000000000e+00 0.0000000000e+00
2.6996850215e+00 -2.6996850215e+00 0.0000000000e+00
     1      1      2
 1  1  1     7.7133097850e-03
 1  1  2     4.2756903739e-02
 1  1  3    -4.2756903739e-02
 1  2  1     2.5730759334e-02
 1  2  2    -1.2406636855e-01
 1  2  3    -4.5050470286e-02
 1  3  1    -2.5730759334e-02
 1  3  2    -4.5050470286e-02
 1  3  3    -1.2406636855e-01
 2  1  1     2.5730759334e-02
 2  1  2    -1.2406636855e-01
 2  1  3    -4.5050470286e-02
 2  2  1     4.7982562280e-02
 2  2  2     7.1348115511e-02
 2  2  3     3.5799487165e-02
 2  3  1     3.3419650184e-02
 2  3  2    -1.2185997383e-01
 2  3  3     1.2185997383e-01
 3  1  1    -2.5730759334e-02
 3  1  2    -4.5050470286e-02
 3  1  3    -1.2406636855e-01
 3  2  1     3.3419650184e-02
 3  2  2    -1.2185997383e-01
 3  2  3     1.2185997383e-01
 3  3  1     4.7982562280e-02
 3  3  2    -3.5799487165e-02
 3  3  3    -7.1348115511e-02

   29
0.0000000000e+00 0.0000000000e+00 0.0000000000e+00
2.9972524701e-16 -2.6996850215e+00 2.6996850215e+00
     1      1      1
 1  1  1    -1.7921574160e-02
 1  1  2    -1.2398103269e-01
 1  1  3     1.2398103269e-01
 1  2  1    -1.7040816837e-01
 1  2  2     2.0395066406e-02
 1  2  3     5.6205266334e-02
 1  3  1     1.7040816837e-01
 1  3  2     5.6205266334e-02
 1  3  3     2.0395066406e-02
 2  1  1    -1.7040816837e-01
 2  1  2     2.0395066406e-02
 2  1  3     5.6205266334e-02
 2  2  1     1.0286491736e-01
 2  2  2     2.5068256801e-02
 2  2  3    -8.7247583898e-02
 2  3  1    -1.0370440299e-01
 2  3  2    -1.0351538591e-01
 2  3  3     1.0351538591e-01
 3  1  1     1.7040816837e-01
 3  1  2     5.6205266334e-02
 3  1  3     2.0395066406e-02
 3  2  1    -1.0370440299e-01
 3  2  2    -1.0351538591e-01
 3  2  3     1.0351538591e-01
 3  3  1     1.0286491736e-01
 3  3  2     8.7247583898e-02
 3  3  3    -2.5068256801e-02

   30
0.0000000000e+00 0.0000000000e+00 0.0000000000e+00
-1.4986262350e-16 -2.6996850215e+00 2.6996850215e+00
     1      1      2
 1  1  1    -7.1348115511e-02
 1  1  2    -3.5799487165e-02
 1  1  3     4.7982562280e-02
 1  2  1     1.2185997383e-01
 1  2  2    -1.2185997383e-01
 1  2  3     3.3419650184e-02
 1  3  1    -1.2406636855e-01
 1  3  2    -4.5050470286e-02
 1  3  3    -2.5730759334e-02
 2  1  1     1.2185997383e-01
 2  1  2    -1.2185997383e-01
 2  1  3     3.3419650184e-02
 2  2  1     3.5799487165e-02
 2  2  2     7.1348115511e-02
 2  2  3     4.7982562280e-02
 2  3  1    -4.5050470286e-02
 2  3  2    -1.2406636855e-01
 2  3  3     2.5730759334e-02
 3  1  1    -1.2406636855e-01
 3  1  2    -4.5050470286e-02
 3  1  3    -2.5730759334e-02
 3  2  1    -4.5050470286e-02
 3  2  2    -1.2406636855e-01
 3  2  3     2.5730759334e-02
 3  3  1    -4.2756903739e-02
 3  3  2     4.2756903739e-02
 3  3  3     7.7133097850e-03

   31
0.0000000000e+00 0.0000000000e+00 0.0000000000e+00
2.6996850215e+00 -2.9972524701e-16 2.6996850215e+00
     1      1      1
 1  1  1    -2.5068256801e-02
 1  1  2    -1.0286491736e-01
 1  1  3    -8.7247583898e-02
 1  2  1    -2.0395066406e-02
 1  2  2     1.7040816837e-01
 1  2  3     5.6205266334e-02
 1  3  1    -1.0351538591e-01
 1  3  2    -1.0370440299e-01
 1  3  3    -1.0351538591e-01
 2  1  1    -2.0395066406e-02
 2  1  2     1.7040816837e-01
 2  1  3     5.6205266334e-02
 2  2  1     1.2398103269e-01
 2  2  2     1.7921574160e-02
 2  2  3     1.2398103269e-01
 2  3  1     5.6205266334e-02
 2  3  2     1.7040816837e-01
 2  3  3    -2.0395066406e-02
 3  1  1    -1.0351538591e-01
 3  1  2    -1.0370440299e-01
 3  1  3    -1.0351538591e-01
 3  2  1     5.6205266334e-02
 3  2  2     1.7040816837e-01
 3  2  3    -2.0395066406e-02
 3  3  1    -8.7247583898e-02
 3  3  2    -1.0286491736e-01
 3  3  3    -2.5068256801e-02

   32
0.0000000000e+00 0.0000000000e+00 0.0000000000e+00
2.9972524701e-16 -2.9972524701e-16 5.3993700430e+00
     1      1      1
 1  1  1     0.0000000000e+00
 1  1  2     0.0000000000e+00
 1  1  3    -2.3645790036e-02
 1  2  1     0.0000000000e+00
 1  2  2     0.0000000000e+00
 1  2  3     1.5373834646e-02
 1  3  1    -1.3019583910e-03
 1  3  2    -3.6656417885e-02
 1  3  3     0.0000000000e+00
 2  1  1     0.0000000000e+00
 2  1  2     0.0000000000e+00
 2  1  3     1.5373834646e-02
 2  2  1     0.0000000000e+00
 2  2  2     0.0000000000e+00
 2  2  3    -2.3645790036e-02
 2  3  1    -3.6656417885e-02
 2  3  2    -1.3019583910e-03
 2  3  3     0.0000000000e+00
 3  1  1    -1.3019583910e-03
 3  1  2    -3.6656417885e-02
 3  1  3     0.0000000000e+00
 3  2  1    -3.6656417885e-02