 1166

    1
0.0000000000e+00 0.0000000000e+00 0.0000000000e+00
0.0000000000e+00 0.0000000000e+00 0.0000000000e+00
     1      1      1
 1  1  1     0.0000000000e+00
 1  1  2     0.0000000000e+00
 1  1  3     0.0000000000e+00
 1  2  1     0.0000000000e+00
 1  2  2     0.0000000000e+00
 1  2  3     3.0771907545e+01
 1  3  1     0.0000000000e+00
 1  3  2     3.0771907545e+01
 1  3  3     0.0000000000e+00
 2  1  1     0.0000000000e+00
 2  1  2     0.0000000000e+00
 2  1  3     3.0771907545e+01
 2  2  1     0.0000000000e+00
 2  2  2     0.0000000000e+00
 2  2  3     0.0000000000e+00
 2  3  1     3.0771907545e+01
 2  3  2     0.0000000000e+00
 2  3  3     0.0000000000e+00
 3  1  1     0.0000000000e+00
 3  1  2     3.0771907545e+01
 3  1  3     0.0000000000e+00
 3  2  1     3.0771907545e+01
 3  2  2     0.0000000000e+00
 3  2  3     0.0000000000e+00
 3  3  1     0.0000000000e+00
 3  3  2     0.0000000000e+00
 3  3  3     0.0000000000e+00

    2
0.0000000000e+00 0.0000000000e+00 0.0000000000e+00
0.0000000000e+00 0.0000000000e+00 0.0000000000e+00
     1      1      2
 1  1  1    -3.0181742684e+00
 1  1  2    -5.7625936286e+00
 1  1  3    -5.7625936286e+00
 1  2  1    -5.7250403577e+00
 1  2  2    -5.7250403577e+00
 1  2  3    -7.9358460453e+00
 1  3  1    -5.7250403577e+00
 1  3  2    -7.9358460453e+00
 1  3  3    -5.7250403577e+00
 2  1  1    -5.7250403577e+00
 2  1  2    -5.7250403577e+00
 2  1  3    -7.9358460453e+00
 2  2  1    -5.7625936286e+00
 2  2  2    -3.0181742684e+00
 2  2  3    -5.7625936286e+00
 2  3  1    -7.9358460453e+00
 2  3  2    -5.7250403577e+00
 2  3  3    -5.7250403577e+00
 3  1  1    -5.7250403577e+00
 3  1  2    -7.9358460453e+00
 3  1  3    -5.7250403577e+00
 3  2  1    -7.9358460453e+00
 3  2  2    -5.7250403577e+00
 3  2  3    -5.7250403577e+00
 3  3  1    -5.7625936286e+00
 3  3  2    -5.7625936286e+00
 3  3  3    -3.0181742684e+00

    3
0.0000000000e+00 0.0000000000e+00 0.0000000000e+00
0.0000000000e+00 2.7335560579e+00 2.7335560579e+00
     1      1      1
 1  1  1     4.5015759975e-02
 1  1  2     1.6221127604e-01
 1  1  3     1.6221127604e-01
 1  2  1     5.0903145548e-02
 1  2  2    -7.6785058244e-02
 1  2  3     1.1019976890e-01
 1  3  1     5.0903145548e-02
 1  3  2     1.1019976890e-01
 1  3  3    -7.6785058244e-02
 2  1  1     5.0903145548e-02
 2  1  2    -7.6785058244e-02
 2  1  3     1.1019976890e-01
 2  2  1    -1.0550359067e-01
 2  2  2    -1.5793589839e-01
 2  2  3    -1.8367878249e-01
 2  3  1    -3.3704779325e-02
 2  3  2    -2.3915754959e-01
 2  3  3    -2.3915754959e-01
 3  1  1     5.0903145548e-02
 3  1  2     1.1019976890e-01
 3  1  3    -7.6785058244e-02
 3  2  1    -3.3704779325e-02
 3  2  2    -2.3915754959e-01
 3  2  3    -2.3915754959e-01
 3  3  1    -1.0550359067e-01
 3  3  2    -1.8367878249e-01
 3  3  3    -1.5793589839e-01

    4
0.0000000000e+00 0.0000000000e+00 0.0000000000e+00
0.0000000000e+00 -2.7335560579e+00 -2.7335560579e+00
     1      1      1
 1  1  1     4.5015759975e-02
 1  1  2    -1.6221127604e-01
 1  1  3    -1.6221127604e-01
 1  2  1    -5.0903145548e-02
 1  2  2    -7.6785058244e-02
 1  2  3     1.1019976890e-01
 1  3  1    -5.0903145548e-02
 1  3  2     1.1019976890e-01
 1  3  3    -7.6785058244e-02
 2  1  1    -5.0903145548e-02
 2  1  2    -7.6785058244e-02
 2  1  3     1.1019976890e-01
 2  2  1    -1.0550359067e-01
 2  2  2     1.5793589839e-01
 2  2  3     1.8367878249e-01
 2  3  1    -3.3704779325e-02
 2  3  2     2.3915754959e-01
 2  3  3     2.3915754959e-01
 3  1  1    -5.0903145548e-02
 3  1  2     1.1019976890e-01
 3  1  3    -7.6785058244e-02
 3  2  1    -3.3704779325e-02
 3  2  2     2.3915754959e-01
 3  2  3     2.3915754959e-01
 3  3  1    -1.0550359067e-01
 3  3  2     1.8367878249e-01
 3  3  3     1.5793589839e-01

    5
0.0000000000e+00 0.0000000000e+00 0.0000000000e+00
0.0000000000e+00 -2.7335560579e+00 -2.7335560579e+00
     1      1      2
 1  1  1    -3.0181742684e+00
 1  1  2     5.7625936286e+00
 1  1  3     5.7625936286e+00
 1  2  1     5.7250403577e+00
 1  2  2    -5.7250403577e+00
 1  2  3    -7.9358460453e+00
 1  3  1     5.7250403577e+00
 1  3  2    -7.9358460453e+00
 1  3  3    -5.7250403577e+00
 2  1  1     5.7250403577e+00
 2  1  2    -5.7250403577e+00
 2  1  3    -7.9358460453e+00
 2  2  1    -5.7625936286e+00
 2  2  2     3.0181742684e+00
 2  2  3     5.7625936286e+00
 2  3  1    -7.9358460453e+00
 2  3  2     5.7250403577e+00
 2  3  3     5.7250403577e+00
 3  1  1     5.7250403577e+00
 3  1  2    -7.9358460453e+00
 3  1  3    -5.7250403577e+00
 3  2  1    -7.9358460453e+00
 3  2  2     5.7250403577e+00
 3  2  3     5.7250403577e+00
 3  3  1    -5.7625936286e+00
 3  3  2     5.7625936286e+00
 3  3  3     3.0181742684e+00

    6
0.0000000000e+00 0.0000000000e+00 0.0000000000e+00
2.7335560579e+00 0.0000000000e+00 2.7335560579e+00
     1      1      1
 1  1  1    -1.5793589839e-01
 1  1  2    -1.0550359067e-01
 1  1  3    -1.8367878249e-01
 1  2  1    -7.6785058244e-02
 1  2  2     5.0903145548e-02
 1  2  3     1.1019976890e-01
 1  3  1    -2.3915754959e-01
 1  3  2    -3.3704779325e-02
 1  3  3    -2.3915754959e-01
 2  1  1    -7.6785058244e-02
 2  1  2     5.0903145548e-02
 2  1  3     1.1019976890e-01
 2  2  1     1.6221127604e-01
 2  2  2     4.5015759975e-02
 2  2  3     1.6221127604e-01
 2  3  1     1.1019976890e-01
 2  3  2     5.0903145548e-02
 2  3  3    -7.6785058244e-02
 3  1  1    -2.3915754959e-01
 3  1  2    -3.3704779325e-02
 3  1  3    -2.3915754959e-01
 3  2  1     1.1019976890e-01
 3  2  2     5.0903145548e-02
 3  2  3    -7.6785058244e-02
 3  3  1    -1.8367878249e-01
 3  3  2    -1.0550359067e-01
 3  3  3    -1.5793589839e-01

    7
0.0000000000e+00 0.0000000000e+00 0.0000000000e+00
2.7335560579e+00 -2.7335560579e+00 0.0000000000e+00
     1      1      1
 1  1  1    -1.5793589839e-01
 1  1  2     1.8367878249e-01
 1  1  3     1.0550359067e-01
 1  2  1     2.3915754959e-01
 1  2  2    -2.3915754959e-01
 1  2  3    -3.3704779325e-02
 1  3  1     7.6785058244e-02
 1  3  2     1.1019976890e-01
 1  3  3     5.0903145548e-02
 2  1  1     2.3915754959e-01
 2  1  2    -2.3915754959e-01
 2  1  3    -3.3704779325e-02
 2  2  1    -1.8367878249e-01
 2  2  2     1.5793589839e-01
 2  2  3     1.0550359067e-01
 2  3  1     1.1019976890e-01
 2  3  2     7.6785058244e-02
 2  3  3    -5.0903145548e-02
 3  1  1     7.6785058244e-02
 3  1  2     1.1019976890e-01
 3  1  3     5.0903145548e-02
 3  2  1     1.1019976890e-01
 3  2  2     7.6785058244e-02
 3  2  3    -5.0903145548e-02
 3  3  1     1.6221127604e-01
 3  3  2    -1.6221127604e-01
 3  3  3    -4.5015759975e-02

    8
0.0000000000e+00 0.0000000000e+00 0.0000000000e+00
2.7335560579e+00 -2.7335560579e+00 0.0000000000e+00
     1      1      2
 1  1  1    -5.6355858459e-04
 1  1  2     2.2826188184e-02
 1  1  3    -2.2826188184e-02
 1  2  1     1.5072671372e-03
 1  2  2    -6.3372693629e-03
 1  2  3    -2.8255342094e-03
 1  3  1    -1.5072671372e-03
 1  3  2    -2.8255342094e-03
 1  3  3    -6.3372693629e-03
 2  1  1     1.5072671372e-03
 2  1  2    -6.3372693629e-03
 2  1  3    -2.8255342094e-03
 2  2  1     3.8063943739e-02
 2  2  2    -2.8027274955e-02
 2  2  3     5.6670827776e-02
 2  3  1     6.0938875991e-02
 2  3  2    -6.8020116499e-02
 2  3  3     6.8020116499e-02
 3  1  1    -1.5072671372e-03
 3  1  2    -2.8255342094e-03
 3  1  3    -6.3372693629e-03
 3  2  1     6.0938875991e-02
 3  2  2    -6.8020116499e-02
 3  2  3     6.8020116499e-02
 3  3  1     3.8063943739e-02
 3  3  2    -5.6670827776e-02
 3  3  3     2.8027274955e-02

    9
0.0000000000e+00 0.0000000000e+00 0.0000000000e+00
-2.7335560579e+00 0.0000000000e+00 -2.7335560579e+00
     1      1      1
 1  1  1     1.5793589839e-01
 1  1  2    -1.0550359067e-01
 1  1  3     1.8367878249e-01
 1  2  1    -7.6785058244e-02
 1  2  2    -5.0903145548e-02
 1  2  3     1.1019976890e-01
 1  3  1     2.3915754959e-01
 1  3  2    -3.3704779325e-02
 1  3  3     2.3915754959e-01
 2  1  1    -7.6785058244e-02
 2  1  2    -5.0903145548e-02
 2  1  3     1.1019976890e-01
 2  2  1    -1.6221127604e-01
 2  2  2     4.5015759975e-02
 2  2  3    -1.6221127604e-01
 2  3  1     1.1019976890e-01
 2  3  2    -5.0903145548e-02
 2  3  3    -7.6785058244e-02
 3  1  1     2.3915754959e-01
 3  1  2    -3.3704779325e-02
 3  1  3     2.3915754959e-01
 3  2  1     1.1019976890e-01
 3  2  2    -5.0903145548e-02
 3  2  3    -7.6785058244e-02
 3  3  1     1.8367878249e-01
 3  3  2    -1.0550359067e-01
 3  3  3     1.5793589839e-01

   10
0.0000000000e+00 0.0000000000e+00 0.0000000000e+00
-2.7335560579e+00 0.0000000000e+00 -2.7335560579e+00
     1      1      2
 1  1  1     3.0181742684e+00
 1  1  2    -5.7625936286e+00
 1  1  3     5.7625936286e+00
 1  2  1    -5.7250403577e+00
 1  2  2     5.7250403577e+00
 1  2  3    -7.9358460453e+00
 1  3  1     5.7250403577e+00
 1  3  2    -7.9358460453e+00
 1  3  3     5.7250403577e+00
 2  1  1    -5.7250403577e+00
 2  1  2     5.7250403577e+00
 2  1  3    -7.9358460453e+00
 2  2  1     5.7625936286e+00
 2  2  2    -3.0181742684e+00
 2  2  3     5.7625936286e+00
 2  3  1    -7.9358460453e+00
 2  3  2     5.7250403577e+00
 2  3  3    -5.7250403577e+00
 3  1  1     5.7250403577e+00
 3  1  2    -7.9358460453e+00
 3  1  3     5.7250403577e+00
 3  2  1    -7.9358460453e+00
 3  2  2     5.7250403577e+00
 3  2  3    -5.7250403577e+00
 3  3  1     5.7625936286e+00
 3  3  2    -5.7625936286e+00
 3  3  3     3.0181742684e+00

   11
0.0000000000e+00 0.0000000000e+00 0.0000000000e+00
-2.7335560579e+00 2.7335560579e+00 0.0000000000e+00
     1      1      1
 1  1  1     1.5793589839e-01
 1  1  2    -1.8367878249e-01
 1  1  3     1.0550359067e-01
 1  2  1    -2.3915754959e-01
 1  2  2     2.3915754959e-01
 1  2  3    -3.3704779325e-02
 1  3  1     7.6785058244e-02
 1  3  2     1.1019976890e-01
 1  3  3    -5.0903145548e-02
 2  1  1    -2.3915754959e-01
 2  1  2     2.3915754959e-01
 2  1  3    -3.3704779325e-02
 2  2  1     1.8367878249e-01
 2  2  2    -1.5793589839e-01
 2  2  3     1.0550359067e-01
 2  3  1     1.1019976890e-01
 2  3  2     7.6785058244e-02
 2  3  3     5.0903145548e-02
 3  1  1     7.6785058244e-02
 3  1  2     1.1019976890e-01
 3  1  3    -5.0903145548e-02
 3  2  1     1.1019976890e-01
 3  2  2     7.6785058244e-02
 3  2  3     5.0903145548e-02
 3  3  1    -1.6221127604e-01
 3  3  2     1.6221127604e-01
 3  3  3    -4.5015759975e-02

   12
0.0000000000e+00 0.0000000000e+00 0.0000000000e+00
-2.7335560579e+00 2.7335560579e+00 0.0000000000e+00
     1      1      2
 1  1  1    -2.8027274955e-02
 1  1  2     3.8063943739e-02
 1  1  3     5.6670827776e-02
 1  2  1    -6.3372693629e-03
 1  2  2     1.5072671372e-03
 1  2  3    -2.8255342094e-03
 1  3  1    -6.8020116499e-02
 1  3  2     6.0938875991e-02
 1  3  3     6.8020116499e-02
 2  1  1    -6.3372693629e-03
 2  1  2     1.5072671372e-03
 2  1  3    -2.8255342094e-03
 2  2  1     2.2826188184e-02
 2  2  2    -5.6355858459e-04
 2  2  3    -2.2826188184e-02
 2  3  1    -2.8255342094e-03
 2  3  2    -1.5072671372e-03
 2  3  3    -6.3372693629e-03
 3  1  1    -6.8020116499e-02
 3  1  2     6.0938875991e-02
 3  1  3     6.8020116499e-02
 3  2  1    -2.8255342094e-03
 3  2  2    -1.5072671372e-03
 3  2  3    -6.3372693629e-03
 3  3  1    -5.6670827776e-02
 3  3  2     3.8063943739e-02
 3  3  3     2.8027274955e-02

   13
0.0000000000e+00 0.0000000000e+00 0.0000000000e+00
-2.7335560579e+00 -2.7335560579e+00 -5.4671121158e+00
     1      1      2
 1  1  1    -2.8027274955e-02
 1  1  2    -5.6670827776e-02
 1  1  3    -3.8063943739e-02
 1  2  1     6.8020116499e-02
 1  2  2     6.8020116499e-02
 1  2  3     6.0938875991e-02
 1  3  1     6.3372693629e-03
 1  3  2    -2.8255342094e-03
 1  3  3     1.5072671372e-03
 2  1  1     6.8020116499e-02
 2  1  2     6.8020116499e-02
 2  1  3     6.0938875991e-02
 2  2  1    -5.6670827776e-02
 2  2  2    -2.8027274955e-02
 2  2  3    -3.8063943739e-02
 2  3  1    -2.8255342094e-03
 2  3  2     6.3372693629e-03
 2  3  3     1.5072671372e-03
 3  1  1     6.3372693629e-03
 3  1  2    -2.8255342094e-03
 3  1  3     1.5072671372e-03
 3  2  1    -2.8255342094e-03
 3  2  2     6.3372693629e-03
 3  2  3     1.5072671372e-03
 3  3  1     2.2826188184e-02
 3  3  2     2.2826188184e-02
 3  3  3     5.6355858459e-04

   14
0.0000000000e+00 0.0000000000e+00 0.0000000000e+00
2.7335560579e+00 2.7335560579e+00 0.0000000000e+00
     1      1      1
 1  1  1    -1.5793589839e-01
 1  1  2    -1.8367878249e-01
 1  1  3    -1.0550359067e-01
 1  2  1    -2.3915754959e-01
 1  2  2    -2.3915754959e-01
 1  2  3    -3.3704779325e-02
 1  3  1    -7.6785058244e-02
 1  3  2     1.1019976890e-01
 1  3  3     5.0903145548e-02
 2  1  1    -2.3915754959e-01
 2  1  2    -2.3915754959e-01
 2  1  3    -3.3704779325e-02
 2  2  1    -1.8367878249e-01
 2  2  2    -1.5793589839e-01
 2  2  3    -1.0550359067e-01
 2  3  1     1.1019976890e-01
 2  3  2    -7.6785058244e-02
 2  3  3     5.0903145548e-02
 3  1  1    -7.6785058244e-02
 3  1  2     1.1019976890e-01
 3  1  3     5.0903145548e-02
 3  2  1     1.1019976890e-01
 3  2  2    -7.6785058244e-02
 3  2  3     5.0903145548e-02
 3  3  1     1.6221127604e-01
 3  3  2     1.6221127604e-01
 3  3  3     4.5015759975e-02

   15
0.0000000000e+00 0.0000000000e+00 0.0000000000e+00
2.7335560579e+00 0.0000000000e+00 -2.7335560579e+00
     1      1      1
 1  1  1    -1.5793589839e-01
 1  1  2     1.0550359067e-01
 1  1  3     1.8367878249e-01
 1  2  1     7.6785058244e-02
 1  2  2     5.0903145548e-02
 1  2  3     1.1019976890e-01
 1  3  1     2.3915754959e-01
 1  3  2    -3.3704779325e-02
 1  3  3    -2.3915754959e-01
 2  1  1     7.6785058244e-02
 2  1  2     5.0903145548e-02
 2  1  3     1.1019976890e-01
 2  2  1     1.6221127604e-01
 2  2  2    -4.5015759975e-02
 2  2  3    -1.6221127604e-01
 2  3  1     1.1019976890e-01
 2  3  2    -5.0903145548e-02
 2  3  3     7.6785058244e-02
 3  1  1     2.3915754959e-01
 3  1  2    -3.3704779325e-02
 3  1  3    -2.3915754959e-01
 3  2  1     1.1019976890e-01
 3  2  2    -5.0903145548e-02
 3  2  3     7.6785058244e-02
 3  3  1    -1.8367878249e-01
 3  3  2     1.0550359067e-01
 3  3  3     1.5793589839e-01

   16
0.0000000000e+00 0.0000000000e+00 0.0000000000e+00
2.7335560579e+00 0.0000000000e+00 -2.7335560579e+00
     1      1      2
 1  1  1    -5.6355858459e-04
 1  1  2    -2.2826188184e-02
 1  1  3     2.2826188184e-02
 1  2  1    -1.5072671372e-03
 1  2  2    -6.3372693629e-03
 1  2  3    -2.8255342094e-03
 1  3  1     1.5072671372e-03
 1  3  2    -2.8255342094e-03
 1  3  3    -6.3372693629e-03
 2  1  1    -1.5072671372e-03
 2  1  2    -6.3372693629e-03
 2  1  3    -2.8255342094e-03
 2  2  1     3.8063943739e-02
 2  2  2     2.8027274955e-02
 2  2  3    -5.6670827776e-02
 2  3  1     6.0938875991e-02
 2  3  2     6.8020116499e-02
 2  3  3    -6.8020116499e-02
 3  1  1     1.5072671372e-03
 3  1  2    -2.8255342094e-03
 3  1  3    -6.3372693629e-03
 3  2  1     6.0938875991e-02
 3  2  2     6.8020116499e-02
 3  2  3    -6.8020116499e-02
 3  3  1     3.8063943739e-02
 3  3  2     5.6670827776e-02
 3  3  3    -2.8027274955e-02

   17
0.0000000000e+00 0.0000000000e+00 0.0000000000e+00
5.4671121158e+00 0.0000000000e+00 0.0000000000e+00
     1      1      1
 1  1  1    -2.0578258020e-02
 1  1  2     0.0000000000e+00
 1  1  3     0.0000000000e+00
 1  2  1     0.0000000000e+00
 1  2  2    -5.9922157390e-03
 1  2  3     8.8544434633e-04
 1  3  1     0.0000000000e+00
 1  3  2     8.8544434633e-04
 1  3  3    -5.9922157390e-03
 2  1  1     0.0000000000e+00
 2  1  2    -5.9922157390e-03
 2  1  3     8.8544434633e-04
 2  2  1    -4.2690143310e-03
 2  2  2     0.0000000000e+00
 2  2  3     0.0000000000e+00
 2  3  1     2.2971650597e-06
 2  3  2     0.0000000000e+00
 2  3  3     0.0000000000e+00
 3  1  1     0.0000000000e+00
 3  1  2     8.8544434633e-04
 3  1  3    -5.9922157390e-03
 3  2  1     2.2971650597e-06
 3  2  2     0.0000000000e+00
 3  2  3     0.0000000000e+00
 3  3  1    -4.2690143310e-03
 3  3  2     0.0000000000e+00
 3  3  3     0.0000000000e+00

   18
0.0000000000e+00 0.0000000000e+00 0.0000000000e+00
0.0000000000e+00 2.7335560579e+00 -2.7335560579e+00
     1      1      1
 1  1  1    -4.5015759975e-02
 1  1  2     1.6221127604e-01
 1  1  3    -1.6221127604e-01
 1  2  1     5.0903145548e-02
 1  2  2     7.6785058244e-02
 1  2  3     1.1019976890e-01
 1  3  1    -5.0903145548e-02
 1  3  2     1.1019976890e-01
 1  3  3     7.6785058244e-02
 2  1  1     5.0903145548e-02
 2  1  2     7.6785058244e-02
 2  1  3     1.1019976890e-01
 2  2  1     1.0550359067e-01
 2  2  2    -1.5793589839e-01
 2  2  3     1.8367878249e-01
 2  3  1    -3.3704779325e-02
 2  3  2     2.3915754959e-01
 2  3  3    -2.3915754959e-01
 3  1  1    -5.0903145548e-02
 3  1  2     1.1019976890e-01
 3  1  3     7.6785058244e-02
 3  2  1    -3.3704779325e-02
 3  2  2     2.3915754959e-01
 3  2  3    -2.3915754959e-01
 3  3  1     1.0550359067e-01
 3  3  2    -1.8367878249e-01
 3  3  3     1.5793589839e-01

   19
0.0000000000e+00 0.0000000000e+00 0.0000000000e+00
0.0000000000e+00 2.7335560579e+00 -2.7335560579e+00
     1      1      2
 1  1  1     2.8027274955e-02
 1  1  2     3.8063943739e-02
 1  1  3    -5.6670827776e-02
 1  2  1    -6.3372693629e-03
 1  2  2    -1.5072671372e-03
 1  2  3    -2.8255342094e-03
 1  3  1     6.8020116499e-02
 1  3  2     6.0938875991e-02
 1  3  3    -6.8020116499e-02
 2  1  1    -6.3372693629e-03
 2  1  2    -1.5072671372e-03
 2  1  3    -2.8255342094e-03
 2  2  1    -2.2826188184e-02
 2  2  2    -5.6355858459e-04
 2  2  3     2.2826188184e-02
 2  3  1    -2.8255342094e-03
 2  3  2     1.5072671372e-03
 2  3  3    -6.3372693629e-03
 3  1  1     6.8020116499e-02
 3  1  2     6.0938875991e-02
 3  1  3    -6.8020116499e-02
 3  2  1    -2.8255342094e-03
 3  2  2     1.5072671372e-03
 3  2  3    -6.3372693629e-03
 3  3  1     5.6670827776e-02
 3  3  2     3.8063943739e-02
 3  3  3    -2.8027274955e-02

   20
0.0000000000e+00 0.0000000000e+00 0.0000000000e+00
0.0000000000e+00 5.4671121158e+00 0.0000000000e+00
     1      1      1
 1  1  1     0.0000000000e+00
 1  1  2    -4.2690143310e-03
 1  1  3     0.0000000000e+00
 1  2  1    -5.9922157390e-03
 1  2  2     0.0000000000e+00
 1  2  3     8.8544434633e-04
 1  3  1     0.0000000000e+00
 1  3  2     2.2971650597e-06
 1  3  3     0.0000000000e+00
 2  1  1    -5.9922157390e-03
 2  1  2     0.0000000000e+00
 2  1  3     8.8544434633e-04
 2  2  1     0.0000000000e+00
 2  2  2    -2.0578258020e-02
 2  2  3     0.0000000000e+00
 2  3  1     8.8544434633e-04
 2  3  2     0.0000000000e+00
 2  3  3    -5.9922157390e-03
 3  1  1     0.0000000000e+00
 3  1  2     2.2971650597e-06
 3  1  3     0.0000000000e+00
 3  2  1     8.8544434633e-04
 3  2  2     0.0000000000e+00
 3  2  3    -5.9922157390e-03
 3  3  1     0.0000000000e+00
 3  3  2    -4.2690143310e-03
 3  3  3     0.0000000000e+00

   21
0.0000000000e+00 0.0000000000e+00 0.0000000000e+00
0.0000000000e+00 0.0000000000e+00 -5.4671121158e+00
     1      1      1
 1  1  1     0.0000000000e+00
 1  1  2     0.0000000000e+00
 1  1  3     4.2690143310e-03
 1  2  1     0.0000000000e+00
 1  2  2     0.0000000000e+00
 1  2  3     2.2971650597e-06
 1  3  1     5.9922157390e-03
 1  3  2     8.8544434633e-04
 1  3  3     0.0000000000e+00
 2  1  1     0.0000000000e+00
 2  1  2     0.0000000000e+00
 2  1  3     2.2971650597e-06
 2  2  1     0.0000000000e+00
 2  2  2     0.0000000000e+00
 2  2  3     4.2690143310e-03
 2  3  1     8.8544434633e-04
 2  3  2     5.9922157390e-03
 2  3  3     0.0000000000e+00
 3  1  1     5.9922157390e-03
 3  1  2     8.8544434633e-04
 3  1  3     0.0000000000e+00
 3  2  1     8.8544434633e-04
 3  2  2     5.9922157390e-03
 3  2  3     0.0000000000e+00
 3  3  1     0.0000000000e+00
 3  3  2     0.0000000000e+00
 3  3  3     2.0578258020e-02

   22
0.0000000000e+00 0.0000000000e+00 0.0000000000e+00
0.0000000000e+00 0.0000000000e+00 -5.4671121158e+00
     1      1      2
 1  1  1     2.8027274955e-02
 1  1  2     5.6670827776e-02
 1  1  3    -3.8063943739e-02
 1  2  1    -6.8020116499e-02
 1  2  2    -6.8020116499e-02
 1  2  3     6.0938875991e-02
 1  3  1     6.3372693629e-03
 1  3  2    -2.8255342094e-03
 1  3  3    -1.5072671372e-03
 2  1  1    -6.8020116499e-02
 2  1  2    -6.8020116499e-02
 2  1  3     6.0938875991e-02
 2  2  1     5.6670827776e-02
 2  2  2     2.8027274955e-02
 2  2  3    -3.8063943739e-02
 2  3  1    -2.8255342094e-03
 2  3  2     6.3372693629e-03
 2  3  3    -1.5072671372e-03
 3  1  1     6.3372693629e-03
 3  1  2    -2.8255342094e-03
 3  1  3    -1.5072671372e-03
 3  2  1    -2.8255342094e-03
 3  2  2     6.3372693629e-03
 3  2  3    -1.5072671372e-03
 3  3  1    -2.2826188184e-02
 3  3  2    -2.2826188184e-02
 3  3  3     5.6355858459e-04

   23
0.0000000000e+00 0.0000000000e+00 0.0000000000e+00
-2.7335560579e+00 -2.7335560579e+00 0.0000000000e+00
     1      1      1
 1  1  1     1.5793589839e-01
 1  1  2     1.8367878249e-01
 1  1  3    -1.0550359067e-01
 1  2  1     2.3915754959e-01
 1  2  2     2.3915754959e-01
 1  2  3    -3.3704779325e-02
 1  3  1    -7.6785058244e-02
 1  3  2     1.1019976890e-01
 1  3  3    -5.0903145548e-02
 2  1  1     2.3915754959e-01
 2  1  2     2.3915754959e-01
 2  1  3    -3.3704779325e-02
 2  2  1     1.8367878249e-01
 2  2  2     1.5793589839e-01
 2  2  3    -1.0550359067e-01
 2  3  1     1.1019976890e-01
 2  3  2    -7.6785058244e-02
 2  3  3    -5.0903145548e-02
 3  1  1    -7.6785058244e-02
 3  1  2     1.1019976890e-01
 3  1  3    -5.0903145548e-02
 3  2  1     1.1019976890e-01
 3  2  2    -7.6785058244e-02
 3  2  3    -5.0903145548e-02
 3  3  1    -1.6221127604e-01
 3  3  2    -1.6221127604e-01
 3  3  3     4.5015759975e-02

   24
0.0000000000e+00 0.0000000000e+00 0.0000000000e+00
-2.7335560579e+00 -2.7335560579e+00 0.0000000000e+00
     1      1      2
 1  1  1     3.0181742684e+00
 1  1  2     5.7625936286e+00
 1  1  3    -5.7625936286e+00
 1  2  1     5.7250403577e+00
 1  2  2     5.7250403577e+00
 1  2  3    -7.9358460453e+00
 1  3  1    -5.7250403577e+00
 1  3  2    -7.9358460453e+00
 1  3  3     5.7250403577e+00
 2  1  1     5.7250403577e+00
 2  1  2     5.7250403577e+00
 2  1  3    -7.9358460453e+00
 2  2  1     5.7625936286e+00
 2  2  2     3.0181742684e+00
 2  2  3    -5.7625936286e+00
 2  3  1    -7.9358460453e+00
 2  3  2    -5.7250403577e+00
 2  3  3     5.7250403577e+00
 3  1  1    -5.7250403577e+00
 3  1  2    -7.9358460453e+00
 3  1  3     5.7250403577e+00
 3  2  1    -7.9358460453e+00
 3  2  2    -5.7250403577e+00
 3  2  3     5.7250403577e+00
 3  3  1     5.7625936286e+00
 3  3  2     5.7625936286e+00
 3  3  3    -3.0181742684e+00

   25
0.0000000000e+00 0.0000000000e+00 0.0000000000e+00
-2.7335560579e+00 0.0000000000e+00 2.7335560579e+00
     1      1      1
 1  1  1     1.5793589839e-01
 1  1  2     1.0550359067e-01
 1  1  3    -1.8367878249e-01
 1  2  1     7.6785058244e-02
 1  2  2    -5.0903145548e-02
 1  2  3     1.1019976890e-01
 1  3  1    -2.3915754959e-01
 1  3  2    -3.3704779325e-02
 1  3  3     2.3915754959e-01
 2  1  1     7.6785058244e-02
 2  1  2    -5.0903145548e-02
 2  1  3     1.1019976890e-01
 2  2  1    -1.6221127604e-01
 2  2  2    -4.5015759975e-02
 2  2  3     1.6221127604e-01
 2  3  1     1.1019976890e-01
 2  3  2     5.0903145548e-02
 2  3  3     7.6785058244e-02
 3  1  1    -2.3915754959e-01
 3  1  2    -3.3704779325e-02
 3  1  3     2.3915754959e-01
 3  2  1     1.1019976890e-01
 3  2  2     5.0903145548e-02
 3  2  3     7.6785058244e-02
 3  3  1     1.8367878249e-01
 3  3  2     1.0550359067e-01
 3  3  3    -1.5793589839e-01

   26
0.0000000000e+00 0.0000000000e+00 0.0000000000e+00
-2.7335560579e+00 0.0000000000e+00 2.7335560579e+00
     1      1      2
 1  1  1    -2.8027274955e-02
 1  1  2     5.6670827776e-02
 1  1  3     3.8063943739e-02
 1  2  1    -6.8020116499e-02
 1  2  2     6.8020116499e-02
 1  2  3     6.0938875991e-02
 1  3  1    -6.3372693629e-03
 1  3  2    -2.8255342094e-03
 1  3  3     1.5072671372e-03
 2  1  1    -6.8020116499e-02
 2  1  2     6.8020116499e-02
 2  1  3     6.0938875991e-02
 2  2  1    -5.6670827776e-02
 2  2  2     2.8027274955e-02
 2  2  3     3.8063943739e-02
 2  3  1    -2.8255342094e-03
 2  3  2    -6.3372693629e-03
 2  3  3    -1.5072671372e-03
 3  1  1    -6.3372693629e-03
 3  1  2    -2.8255342094e-03
 3  1  3     1.5072671372e-03
 3  2  1    -2.8255342094e-03
 3  2  2    -6.3372693629e-03
 3  2  3    -1.5072671372e-03
 3  3  1     2.2826188184e-02
 3  3  2    -2.2826188184e-02
 3  3  3    -5.6355858459e-04

   27
0.0000000000e+00 0.0000000000e+00 0.0000000000e+00
-2.7335560579e+00 -5.4671121158e+00 -2.7335560579e+00
     1      1      2
 1  1  1    -2.8027274955e-02
 1  1  2    -3.8063943739e-02
 1  1  3    -5.6670827776e-02
 1  2  1     6.3372693629e-03
 1  2  2     1.5072671372e-03
 1  2  3    -2.8255342094e-03
 1  3  1     6.8020116499e-02
 1  3  2     6.0938875991e-02
 1  3  3     6.8020116499e-02
 2  1  1     6.3372693629e-03
 2  1  2     1.5072671372e-03
 2  1  3    -2.8255342094e-03
 2  2  1     2.2826188184e-02
 2  2  2     5.6355858459e-04
 2  2  3     2.2826188184e-02
 2  3  1    -2.8255342094e-03
 2  3  2     1.5072671372e-03
 2  3  3     6.3372693629e-03
 3  1  1     6.8020116499e-02
 3  1  2     6.0938875991e-02
 3  1  3     6.8020116499e-02
 3  2  1    -2.8255342094e-03
 3  2  2     1.5072671372e-03
 3  2  3     6.3372693629e-03
 3  3  1    -5.6670827776e-02
 3  3  2    -3.8063943739e-02
 3  3  3    -2.8027274955e-02

   28
0.0000000000e+00 0.0000000000e+00 0.0000000000e+00
0.0000000000e+00 -2.7335560579e+00 2.7335560579e+00
     1      1      1
 1  1  1    -4.5015759975e-02
 1  1  2    -1.6221127604e-01
 1  1  3     1.6221127604e-01
 1  2  1    -5.0903145548e-02
 1  2  2     7.6785058244e-02
 1  2  3     1.1019976890e-01
 1  3  1     5.0903145548e-02
 1  3  2     1.1019976890e-01
 1  3  3     7.6785058244e-02
 2  1  1    -5.0903145548e-02
 2  1  2     7.6785058244e-02
 2  1  3     1.1019976890e-01
 2  2  1     1.0550359067e-01
 2  2  2     1.5793589839e-01
 2  2  3    -1.8367878249e-01
 2  3  1    -3.3704779325e-02
 2  3  2    -2.3915754959e-01
 2  3  3     2.3915754959e-01
 3  1  1     5.0903145548e-02
 3  1  2     1.1019976890e-01
 3  1  3     7.6785058244e-02
 3  2  1    -3.3704779325e-02
 3  2  2    -2.3915754959e-01
 3  2  3     2.3915754959e-01
 3  3  1     1.0550359067e-01
 3  3  2     1.8367878249e-01
 3  3  3    -1.5793589839e-01

   29
0.0000000000e+00 0.0000000000e+00 0.0000000000e+00
0.0000000000e+00 -2.7335560579e+00 2.7335560579e+00
     1      1      2
 1  1  1     2.8027274955e-02
 1  1  2    -5.6670827776e-02
 1  1  3     3.8063943739e-02
 1  2  1     6.8020116499e-02
 1  2  2    -6.8020116499e-02
 1  2  3     6.0938875991e-02
 1  3  1    -6.3372693629e-03
 1  3  2    -2.8255342094e-03
 1  3  3    -1.5072671372e-03
 2  1  1     6.8020116499e-02
 2  1  2    -6.8020116499e-02
 2  1  3     6.0938875991e-02
 2  2  1     5.6670827776e-02
 2  2  2    -2.8027274955e-02
 2  2  3     3.8063943739e-02
 2  3  1    -2.8255342094e-03
 2  3  2    -6.3372693629e-03
 2  3  3     1.5072671372e-03
 3  1  1    -6.3372693629e-03
 3  1  2    -2.8255342094e-03
 3  1  3    -1.5072671372e-03
 3  2  1    -2.8255342094e-03
 3  2  2    -6.3372693629e-03
 3  2  3     1.5072671372e-03
 3  3  1    -2.2826188184e-02
 3  3  2     2.2826188184e-02
 3  3  3    -5.6355858459e-04

   30
0.0000000000e+00 0.0000000000e+00 0.0000000000e+00
0.0000000000e+00 0.0000000000e+00 5.4671121158e+00
     1      1      1
 1  1  1     0.0000000000e+00
 1  1  2     0.0000000000e+00
 1  1  3    -4.2690143310e-03
 1  2  1     0.0000000000e+00
 1  2  2     0.0000000000e+00
 1  2  3     2.2971650597e-06
 1  3  1    -5.9922157390e-03
 1  3  2     8.8544434633e-04
 1  3  3     0.0000000000e+00
 2  1  1     0.0000000000e+00
 2  1  2     0.0000000000e+00
 2  1  3     2.2971650597e-06
 2  2  1     0.0000000000e+00
 2  2  2     0.0000000000e+00
 2  2  3    -4.2690143310e-03
 2  3  1     8.8544434633e-04
 2  3  2    -5.9922157390e-03
 2  3  3     0.0000000000e+00
 3  1  1    -5.9922157390e-03
 3  1  2     8.8544434633e-04
 3  1  3     0.0000000000e+00
 3  2  1     8.8544434633e-04
 3  2  2    -5.9922157390e-03
 3  2  3     0.0000000000e+00
 3  3  1     0.0000000000e+00
 3  3  2     0.0000000000e+00
 3  3  3    -2.0578258020e-02

   31
0.0000000000e+00 0.0000000000e+00 0.0000000000e+00
0.0000000000e+00 -5.4671121158e+00 0.0000000000e+00
     1      1      1
 1  1  1     0.0000000000e+00
 1  1  2     4.2690143310e-03
 1  1  3     0.0000000000e+00
 1  2  1     5.9922157390e-03
 1  2  2     0.0000000000e+00
 1  2  3     8.8544434633e-04
 1  3  1     0.0000000000e+00
 1  3  2     2.2971650597e-06
 1  3  3     0.0000000000e+00
 2  1  1     5.9922157390e-03
 2  1  2     0.0000000000e+00
 2  1  3     8.8544434633e-04
 2  2  1     0.0000000000e+00
 2  2  2     2.0578258020e-02
 2  2  3     0.0000000000e+00
 2  3  1     8.8544434633e-04
 2  3  2     0.0000000000e+00
 2  3  3     5.9922157390e-03
 3  1  1     0.0000000000e+00
 3  1  2     2.2971650597e-06
 3  1  3     0.0000000000e+00
 3  2  1     8.8544434633e-04
 3  2  2     0.0000000000e+00
 3  2  3     5.9922157390e-03
 3  3  1     0.0000000000e+00
 3  3  2     4.2690143310e-03
 3  3  3     0.0000000000e+00

   32
0.0000000000e+00 0.0000000000e+00 0.0000000000e+00
0.0000000000e+00 -5.4671121158e+00 0.0000000000e+00
     1      1      2
 1  1  1     2.8027274955e-02
 1  1  2    -3.8063943739e-02
 1  1  3     5.6670827776e-02
 1  2  1     6.3372693629e-03
 1  2  2    -1.5072671372e-03
 1  2  3    -2.8255342094e-03
 1  3  1    -6.8020116499e-02
 1  3  2     6.0938875991e-02
 1  3  3    -6.8020116499e-02
 2  1  1     6.3372693629e-03
 2  1  2    -1.5072671372e-03
 2  1  3    -2.8255342094e-03
 2  2  1    -2.2826188184e-02
 2  2  2     5.6355858459e-04
 2  2  3    -2.2826188184e-02
 2  3  1    -2.8255342094e-03
 2  3  2    -1.5072671372e-03
 2  3  3     6.3372693629e-03
 3  1  1    -6.8020116499e-02
 3  1  2     6.0938875991e-02
 3  1  3    -6.8020116499e-02
 3  2  1    -2.8255342094e-03
 3  2  2    -1.5072671372e-03