Si46.lmp (written by ASE)

46       atoms
1  atom types
0.0           10.1514021552  xlo xhi
0.0           10.1514021552  ylo yhi
0.0           10.1514021552  zlo zhi


Atoms

     1   1       6.966568110699999       6.966568110699999       6.966568110699999
     2   1      3.2338322210999997      3.2338322210999997      3.2338322210999997
     3   1      3.2338322210999997      3.2338322210999997       6.966568110699999
     4   1       6.966568110699999       6.966568110699999      3.2338322210999997
     5   1      3.2338322210999997       6.966568110699999      3.2338322210999997
     6   1       6.966568110699999      3.2338322210999997       6.966568110699999
     7   1       6.966568110699999      3.2338322210999997      3.2338322210999997
     8   1      3.2338322210999997       6.966568110699999       6.966568110699999
     9   1      1.8908670330999997      1.8908670330999997      8.3095332986999999
    10   1      8.3095332986999999      8.3095332986999999      1.8908670330999997
    11   1      8.3095332986999999      8.3095332986999999      8.3095332986999999
    12   1      1.8908670330999997      1.8908670330999997      1.8908670330999997
    13   1      1.8908670330999997      8.3095332986999999      1.8908670330999997
    14   1      8.3095332986999999      1.8908670330999997      8.3095332986999999
    15   1      8.3095332986999999      1.8908670330999997      1.8908670330999997
    16   1      1.8908670330999997      8.3095332986999999      8.3095332986999999
    17   1      5.1002001658999996      6.2902416685000002      8.2214532206999991
    18   1      5.1002001658999996      3.9101586633999998      1.9789471110999999
    19   1      5.1002001658999996      3.9101586633999998      8.2214532206000008
    20   1      5.1002001658999996      6.2902416685000002      1.9789471110999999
    21   1      8.2214532206999991      5.1002001658999996      6.2902416685000002
    22   1      1.9789471110999999      5.1002001658999996      3.9101586633999998
    23   1      8.2214532206000008      5.1002001658999996      3.9101586633999998
    24   1      1.9789471110999999      5.1002001658999996      6.2902416685000002
    25   1      6.2902416685000002      8.2214532206999991      5.1002001658999996
    26   1      3.9101586633999998      1.9789471110999999      5.1002001658999996
    27   1      3.9101586633999998      8.2214532206000008      5.1002001658999996
    28   1      6.2902416685000002      1.9789471110999999      5.1002001658999996
    29   1            1.2145405909    0.024499088300000874       7.054648188699999
    30   1      8.9858597409999987    0.024499088300000874      3.1457521430000002
    31   1      8.9858597409999987    0.024499088300000874      7.0546481887999999
    32   1            1.2145405909    0.024499088300000874      3.1457521431000002
    33   1    0.024499088300000874      3.1457521430000002      8.9858597409999987
    34   1    0.024499088300000874       7.054648188699999            1.2145405909
    35   1    0.024499088300000874      3.1457521431000002            1.2145405909
    36   1    0.024499088300000874      7.0546481887999999      8.9858597409999987
    37   1      3.1457521431000002            1.2145405909    0.024499088300000874
    38   1      7.0546481887999999      8.9858597409999987    0.024499088300000874
    39   1      3.1457521430000002      8.9858597409999987    0.024499088300000874
    40   1       7.054648188699999            1.2145405909    0.024499088300000874
    41   1      7.6380507047999995    0.024499088300000874      5.1002001658999996
    42   1      2.5623496271000001    0.024499088300000874      5.1002001658999996
    43   1      5.1002001658999996      7.6380507047999995    0.024499088300000874
    44   1      5.1002001658999996      2.5623496271000001    0.024499088300000874
    45   1    0.024499088300000874      5.1002001658999996      7.6380507047999995
    46   1    0.024499088300000874      5.1002001658999996      2.5623496271000001
