CNT.lmp (written by ASE) 

40 	 atoms 
1  atom types
0.0                      50  xlo xhi
0.0                      50  ylo yhi
0.0      4.3179999999999996  zlo zhi


Atoms 

     1   1                 12.9275      8.9141999999999992      2.8791000000000002
     2   1      12.731100000000001      10.154400000000001      3.5975999999999999
     3   1                 12.9275      8.9141999999999992      1.4386000000000001
     4   1                  12.161      11.273199999999999      2.8791000000000002
     5   1      11.273099999999999      12.161099999999999      3.5975999999999999
     6   1      12.731100000000001      10.154400000000001     0.72009999999999996
     7   1                  12.161      11.273199999999999      1.4386000000000001
     8   1      10.154199999999999      12.731200000000001      2.8791000000000002
     9   1      8.9139999999999997                 12.9276      3.5975999999999999
    10   1      11.273099999999999      12.161099999999999     0.72009999999999996
    11   1      10.154199999999999      12.731200000000001      1.4386000000000001
    12   1                  7.6738      12.731100000000001      2.8791000000000002
    13   1      6.5549999999999997                  12.161      3.5975999999999999
    14   1      8.9139999999999997                 12.9276     0.72009999999999996
    15   1                  7.6738      12.731100000000001      1.4386000000000001
    16   1      5.6670999999999996      11.273099999999999      2.8791000000000002
    17   1      5.0970000000000004      10.154299999999999      3.5975999999999999
    18   1      6.5549999999999997                  12.161     0.72009999999999996
    19   1      5.6670999999999996      11.273099999999999      1.4386000000000001
    20   1      4.9005999999999998      8.9140999999999995      2.8791000000000002
    21   1      5.0971000000000002                  7.6738      3.5975999999999999
    22   1      5.0970000000000004      10.154299999999999     0.72009999999999996
    23   1      4.9005999999999998      8.9140999999999995      1.4386000000000001
    24   1      5.6672000000000002      6.5549999999999997      2.8791000000000002
    25   1      6.5550999999999995      5.6670999999999996      3.5975999999999999
    26   1      5.0971000000000002                  7.6738     0.72009999999999996
    27   1      5.6672000000000002      6.5549999999999997      1.4386000000000001
    28   1      7.6738999999999997      5.0971000000000002      2.8791000000000002
    29   1      8.9140999999999995      4.9006999999999996      3.5975999999999999
    30   1      6.5550999999999995      5.6670999999999996     0.72009999999999996
    31   1      7.6738999999999997      5.0971000000000002      1.4386000000000001
    32   1      10.154400000000001      5.0971000000000002      2.8791000000000002
    33   1      11.273199999999999      5.6672000000000002      3.5975999999999999
    34   1      8.9140999999999995      4.9006999999999996     0.72009999999999996
    35   1      10.154400000000001      5.0971000000000002      1.4386000000000001
    36   1      12.161099999999999      6.5550999999999995      2.8791000000000002
    37   1      12.731100000000001      7.6740000000000004      3.5975999999999999
    38   1      11.273199999999999      5.6672000000000002     0.72009999999999996
    39   1      12.161099999999999      6.5550999999999995      1.4386000000000001
    40   1      12.731100000000001      7.6740000000000004     0.72009999999999996
