1728
Lattice="32.7433 0.0 0.0 0.0 32.7433 0.0 0.0 0.0 32.7433" Properties=species:S:1:pos:R:3:forces:R:3 energy=-7519.685037303735 stress="-0.005839011398795113 0.00031781250461241766 -0.00037479470961806306 0.00031781250461241766 -0.005484678565035369 -0.00036849306994544284 -0.00037479470961806306 -0.00036849306994544284 -0.005101558663430307" free_energy=-7519.685037303735 pbc="T T T"
Si       0.68141936       2.37447074       2.05827064       0.00011559      -0.00001961      -0.00003126
Si      17.98744854       0.16428876      22.78911003       0.00003279      -0.00001286       0.00002758
Si      31.43998319      15.63832085      20.21551543       0.00001425       0.00013015      -0.00008464
Si      27.76330671      14.30693002      19.42309623       0.00000758      -0.00002589       0.00004833
Si      29.87181851      13.90992071      20.28750987      -0.00002746       0.00000743      -0.00001998
Si      26.56010415      14.68677314      21.37388338       0.00000980       0.00009275       0.00002689
Si      24.37772428      14.24958050      20.83889806      -0.00004777      -0.00004095      -0.00000067
Si      20.59196724      14.42674087      20.00405437       0.00005049      -0.00005538       0.00002063
Si      17.45079669      16.15534536      20.79660432       0.00019423       0.00001918       0.00006659
Si      18.31067580      14.33951481      19.57114321      -0.00003037       0.00001892      -0.00006410
Si      32.26312820      11.40594334      20.75594982      -0.00007508      -0.00001480       0.00001375
Si      30.59086543      11.97834414      19.18437842      -0.00010203       0.00007286      -0.00005619
Si      24.62316749      12.15209044      19.86341899       0.00003623      -0.00005190      -0.00002870
Ge      17.73815105      12.13941068      20.29515941      -0.00003721      -0.00006041      -0.00000267
Si      29.23945084      10.17450001      19.86739259      -0.00003950       0.00006193      -0.00004185
Si      25.24669559      10.45521804      21.29961600      -0.00004026      -0.00003255      -0.00000069
Si      25.72511121       8.79116249      19.50240242      -0.00000454       0.00001754      -0.00008053
Ge      21.86883245       8.23613872      19.30676526      -0.00003445      -0.00007922      -0.00000474
Si      21.26787558      10.42357149      20.01866228       0.00019793      -0.00004335       0.00001978
Si      19.04577195      10.26358129      19.52404417      -0.00009102       0.00004979      -0.00000848
Si      29.73921939       6.74457944      21.40298790       0.00010110      -0.00000788      -0.00003078
Si      29.47306949       7.87412845      19.42740799      -0.00001600       0.00002601      -0.00005544
Si      25.85709100       7.26187178      21.43033906      -0.00007023       0.00001450      -0.00003743
Ge      22.34058864       6.94219212      21.28243378      -0.00003163      -0.00005440       0.00001467
Ge      18.56740878       2.36826154      21.87725646       0.00001686      -0.00013973       0.00003758
Si      19.10897153       5.99627497      20.64572169      -0.00001306      -0.00004395      -0.00002370
Si      20.68029398       1.30897095      24.47186631      -0.00001125      -0.00001277       0.00003215
Si      23.76162564       2.02367824      22.50216191      -0.00002631       0.00003549       0.00007234
Si      23.54377205      10.02846034      22.85655639      -0.00004436      -0.00010639       0.00002936
Si      19.93080095      10.34445698      23.90605354       0.00001323       0.00006643      -0.00002520
Si      17.59381142      10.56167529      23.45363775       0.00000214      -0.00007406       0.00000675
Si      17.01549563       8.55103018      22.29741357       0.00002557      -0.00006910       0.00007838
Ge      31.62158043       8.09150383      24.11908794      -0.00001338       0.00001432       0.00009777
Si      31.93351853       7.38297686      21.93919832       0.00006111       0.00000130       0.00002766
Si      27.91637256       7.79183848      22.40548290      -0.00004851      -0.00000758       0.00003277
Si      23.96040939       7.72082743      22.76754738      -0.00001367      -0.00009658      -0.00004024
Si      20.43686832       6.47887587      22.57605258      -0.00005695       0.00002573       0.00008086
Si      19.82128352       7.98593928      24.30679815       0.00010183      -0.00001925      -0.00003668
Si      17.58516195       7.11695555      24.13655128       0.00000782      -0.00001702       0.00006429
Ge      32.16929615       3.80104322      24.03716977       0.00011264      -0.00005279      -0.00004512
Si      32.74925985       5.17451979      22.07737274       0.00001415       0.00004681      -0.00007532
Si      28.66477195       3.60590994      23.19716668      -0.00005192       0.00011428       0.00003270
Si      26.42536947       4.26901857      23.40740378      -0.00001562       0.00003908      -0.00000355
Si      22.13574216       3.56029356      21.96345073       0.00002246       0.00003966       0.00001364
Si      19.12019806       3.28921970      24.23103269      -0.00005846      -0.00001219      -0.00002144
Si      21.03704097       4.55991650      23.73974111       0.00002975      -0.00004455       0.00006339
Si      17.28810117       4.82074267      23.59932850      -0.00002773      -0.00005031       0.00006408
Si      30.64397190       0.02502761      23.28999012       0.00003979      -0.00005477      -0.00000371
Si      32.56270881       1.41082900      23.59241381       0.00004322      -0.00002809      -0.00000889
Ge      28.43124303       1.23085808      23.31849709       0.00010858       0.00006542       0.00001189
Si      25.15119389       2.48621221      24.30041335       0.00006658       0.00010002       0.00012008
Si      22.32304955       0.29068727      23.04127648      -0.00003888      -0.00005125       0.00003737
Si      28.83478164       9.95073403      22.19606292      -0.00002110       0.00006670      -0.00003339
Si      18.15611521       8.15026143      20.26549114       0.00002678      -0.00000745       0.00007453
Si      28.66602754       3.54920998      19.30200584      -0.00007945      -0.00000870       0.00006632
Si      22.96265985      10.51915776      16.58427865       0.00002847       0.00002679      -0.00002769
Si      23.85966476       8.52968649      18.02736337       0.00003935      -0.00009589       0.00005827
Si      18.93760115      10.49935928      17.16629478      -0.00001996      -0.00003215       0.00004154
Si      31.25328718       7.35078241      18.07986910       0.00001319      -0.00006727      -0.00005743
Si      27.35468367       7.15821678      18.76551566      -0.00002814      -0.00006923       0.00000860
Si      27.41446204       7.10014631      16.45580960      -0.00010928      -0.00003765       0.00000429
Si      23.82848066       6.23678462      17.06758230      -0.00004238      -0.00003584      -0.00000071
Si      20.52978061       7.02604964      17.61971146      -0.00005245      -0.00000028      -0.00001909
Ge      16.89122090       7.68047866      18.26706110       0.00001893       0.00008085       0.00001125
Si      18.61918130       8.06810340      16.60172657      -0.00002989      -0.00002096      -0.00007174
Si      31.70162858       5.04843961      18.19005258       0.00001568       0.00003078       0.00002879
Si      29.86418886       3.87019895      17.30916188       0.00001335       0.00008443       0.00004097
Si      25.47617194       4.29464947      17.36772349      -0.00003230      -0.00003580       0.00003939
Si      22.59973499       4.60249517      18.36120539       0.00008039      -0.00006426      -0.00000492
Si      20.20590866       4.83107969      18.77354694      -0.00006153      -0.00006448       0.00001374
Ge      16.75320957       3.23895662      17.89390578       0.00001149       0.00008916       0.00005707
Si      19.13132499       3.26172743      17.26841212      -0.00006100       0.00007277      -0.00005092
Si      28.49085608       0.36064344      17.75900834       0.00001685      -0.00000672       0.00005109
Si      26.16382477       0.34617465      17.55312711      -0.00008109       0.00002586      -0.00002326
Si      25.11070674       2.20113712      18.50801552      -0.00000199      -0.00003111      -0.00003096
Ge      22.87901545       2.25800758      17.72945063       0.00000126       0.00002601      -0.00005160
Si      19.45737358       0.91076979      17.96466268       0.00001589      -0.00002108       0.00009060
Si      32.01947855      16.30301563      14.71447868      -0.00010439      -0.00005149      -0.00001150
Si      28.29210525       9.27886391      16.38756807      -0.00004544      -0.00003445       0.00006425
Si      31.72406978       4.07279554      20.31758592       0.00007170       0.00006802      -0.00009680
Si      27.40996261      10.24114287      18.41576941      -0.00010283      -0.00005147       0.00003673
Si      22.67066078      11.71070434      18.65229870      -0.00007126      -0.00011574       0.00005857
Si      29.58991416       4.44087145      21.22716225       0.00002566       0.00003625       0.00000801
Si      26.82151782       4.94080995      19.17396540      -0.00002574      -0.00007164      -0.00005696
Si      25.62969772       4.81888716      21.18718705       0.00000785       0.00005422      -0.00001481
Si      23.33464390       4.94922425      20.57093028       0.00000845       0.00000567      -0.00003038
Si      20.47899439       2.95035627      20.46255251       0.00000734      -0.00001752       0.00002959
Si      17.34881308       4.50727060      21.26053267      -0.00011041       0.00000675      -0.00005432
Si      30.65009151       0.30473474      20.72655716       0.00003561       0.00005191       0.00004001
Ge      32.35179232       1.82790307      20.06334122      -0.00001424      -0.00000058      -0.00007803
Si      28.70171383       1.27186844      19.86092652       0.00005083       0.00000407      -0.00001616
Si      25.39708478       2.35523573      20.83193979       0.00007838      -0.00000514       0.00007025
Si      27.05399366       0.78728572      21.40645254       0.00014340      -0.00005269       0.00000652
Si      21.40572553       1.15894677      19.27704605       0.00009224       0.00001058      -0.00000139
Ge      17.51099946       0.14689264      19.28040640       0.00007189       0.00006415      -0.00008478
Si      16.49369053       2.17715803      20.24898855      -0.00000656      -0.00003252       0.00006405
Si      30.87111390      15.18259041      16.45482819      -0.00004323       0.00007727       0.00003097
Si      27.56534820      16.07655231      17.87160697       0.00002057      -0.00002276       0.00004351
Si      25.36221298      15.68866082      17.09316527       0.00000599      -0.00007922       0.00001178
Si      21.94704424      13.88889869      18.16462029       0.00005438      -0.00003320      -0.00000414
Si      23.75255832      15.31925321      18.76221420       0.00000786      -0.00000838       0.00002622
Si      17.45473576      14.38320143      17.42149213       0.00004459       0.00002207      -0.00005091
Si      31.08269165      12.87268946      16.94394438      -0.00006672       0.00007877       0.00001872
Si      26.57435552      12.42354265      18.58752843       0.00000799      -0.00005440      -0.00002272
Si      25.86066514      13.39114417      16.64803741      -0.00008743      -0.00004667      -0.00001393
Si      17.14095437      12.07851079      16.96540639      -0.00002017       0.00011009      -0.00003186
Si      27.50732391      13.76538559      15.08010236      -0.00012457       0.00002452       0.00009634
Si      30.55256951      10.25069913      23.85459581      -0.00009591       0.00009975       0.00009706
Si      21.48921365      11.04421351      22.25787664       0.00000313      -0.00002890      -0.00000271
Si      31.29304371      13.94773306      27.41069460      -0.00006442       0.00000790       0.00008559
Si      29.21104946      14.91095523      27.99777509      -0.00009431       0.00004933       0.00004653
Si      25.59897369      13.68302102      28.66513608      -0.00007730       0.00010742      -0.00001948
Si      24.64096981      15.81905865      28.46122262      -0.00001174       0.00001667       0.00002922
Si      20.89764055      14.01077960      29.62645308      -0.00005614      -0.00002578       0.00004956
Ge      20.84281587      15.12549263      27.39500206      -0.00017296       0.00012732      -0.00001024
Si      17.70685567      15.56497205      28.49694217      -0.00001526       0.00005063      -0.00002762
Si      31.53630167      11.62488998      27.55999712      -0.00010769      -0.00005063       0.00007025
Si      31.19585907      10.97970192      29.78391761      -0.00006685      -0.00005710       0.00006135
Si      23.87515338      12.01459234      28.26956132       0.00013813       0.00013136       0.00006371
Si      21.97920043      11.88178686      29.71430697       0.00000132       0.00006540       0.00000549
Si      31.47279964       8.61644087      29.98204263       0.00001402       0.00002245      -0.00001706
Si      28.28207938       8.20527971      28.50781812       0.00003080       0.00004266      -0.00005855
Ge      27.50714685      10.41919480      28.62230452      -0.00003287       0.00008267       0.00002837
Si      25.20372270      10.19146797      29.00687385       0.00003471      -0.00001007       0.00007485
Ge      19.95504999      10.09344150      27.30731451       0.00005253      -0.00005458      -0.00000868
Si      20.53059175      10.04215344      29.64895645       0.00004877       0.00003983       0.00003016
Si      17.62215752      10.30812836      27.95548881      -0.00000429      -0.00001672      -0.00002452
Si      16.51252271       8.25912134      27.90497344       0.00003128       0.00000939       0.00011150
Ge      31.68536657       7.18880668      28.07606212      -0.00002526       0.00004553       0.00000316
Si      24.58947442       8.06273159      28.31296912      -0.00000124      -0.00002358       0.00010184
Si      26.55183154       6.67395571      28.53354968       0.00005180      -0.00002683       0.00005619
Si      23.34552634       7.04293806      29.95514714      -0.00000392       0.00000162       0.00005104
Si      18.98706312       2.55357113      31.30248993       0.00006979      -0.00004407       0.00004566
Si      20.18397845       6.71550092      28.14008709      -0.00001791      -0.00007064       0.00005568
Si      23.49494220       0.34658068      32.47325964      -0.00006618       0.00004335      -0.00004298
Si      29.16318868       2.61987909      30.91828318      -0.00022559       0.00011885       0.00018708
Ge      28.94520471      11.18644531      30.46178753      -0.00002980      -0.00000110       0.00004755
Si      28.53920711      13.30077792      31.42309319       0.00002094       0.00003924       0.00004390
Ge      25.28365406      10.96121774      31.26363135      -0.00006215      -0.00002290      -0.00001985
Si      26.27959196      13.08704996      30.87061596      -0.00003252      -0.00001459      -0.00005722
Ge      23.14798114      13.32167121      32.76213972      -0.00005453       0.00004635      -0.00001351
Si      22.97310710      11.22152665      31.74258723      -0.00000575       0.00004580       0.00003365
Si      17.57907294      12.62533716      31.14882885       0.00000894       0.00002409      -0.00000501
Si      28.60239234       9.54570212      32.18161353       0.00001038      -0.00004678       0.00004571
Si      18.26392305      10.56724998      30.24681183       0.00000123       0.00007202       0.00000309
Si      16.89197001       9.12610622      31.53670749       0.00007540      -0.00000392       0.00006379
Si      28.96288544       5.94786282      31.32336438       0.00004465      -0.00010363       0.00006344
Si      29.31894388       8.04322623      30.58066398       0.00004700       0.00001505       0.00002566
Si      26.70227315       5.67936056      30.68681736       0.00000082      -0.00001175       0.00004787
Si      24.77785639       6.61765018      31.76623257      -0.00011142       0.00006428       0.00000400
Si      19.92877132       6.63505105      31.77708640      -0.00003497       0.00002326      -0.00003391
Si      21.11300904       7.75474918      30.05853191      -0.00002767       0.00004739       0.00000993
Ge      17.66672533       6.86040403      31.06730434      -0.00004314      -0.00003682       0.00003258
Si      30.56649318       4.48305416      30.41106624       0.00000492       0.00003802      -0.00004963
Si      26.84777294       3.31272383      31.05275920      -0.00000012       0.00003458       0.00010312
Si      22.54241471       3.95238068      31.35591963      -0.00005881      -0.00001035      -0.00003759
Si      20.37771885       4.30439079      32.14198188      -0.00000528       0.00005062       0.00001884
Si      16.37447291       4.95118740      31.75433699      -0.00000154       0.00000680       0.00004897
Si      17.03213870       3.28141999      30.17271374      -0.00000478      -0.00002366       0.00005522
Si      22.95439961       1.75959357      30.69478171      -0.00002090       0.00004016       0.00000886
Si      17.64015961      12.72737656      22.58819437       0.00003880      -0.00003944       0.00001495
Si      17.90397199       6.52779313      28.67873899      -0.00001220       0.00000496       0.00005281
Si      24.91060731       3.69901375      28.00555005       0.00003655       0.00002331       0.00006798
Si      26.19056320       5.88107874      25.09060620      -0.00004570      -0.00005823      -0.00000671
Si      23.98315408       6.61287529      24.86864716      -0.00006809       0.00005104       0.00003374
Si      20.92016957       8.10394230      26.40472446      -0.00001423      -0.00007496       0.00006258
Si      29.08328990       3.81324058      26.92522869       0.00003721       0.00009544       0.00011774
Si      29.98958599       4.52268536      24.87299502       0.00007753       0.00004539       0.00007498
Si      26.83919066       4.82944908      27.11716553       0.00007660      -0.00000831       0.00000459
Si      23.77257857       3.03620625      26.06638364       0.00000185       0.00000750       0.00005956
Si      22.48634259       4.92124609      25.49569057      -0.00001582       0.00000477       0.00006251
Si      18.45290322       2.91636418      26.56232779       0.00002659      -0.00010557       0.00003653
Si      29.23039192       1.38242357      27.11889314      -0.00004649      -0.00012264       0.00002673
Si      27.16628953       0.36094719      27.02327464       0.00002454      -0.00005298       0.00003414
Si      26.54693094       0.68225315      24.76253493       0.00008047       0.00007233       0.00002693
Si      22.01405480       1.54223710      26.41604821      -0.00001911      -0.00004685       0.00005988
Si      17.32752449       0.84726048      26.31238945      -0.00000858      -0.00003344      -0.00001193
Si      30.27260589      15.64697750      23.82001630      -0.00001798       0.00006596      -0.00003775
Si      29.65040940      13.69033373      22.63822349      -0.00003287       0.00002641      -0.00005564
Si      23.11367925      14.56129608      22.83502141      -0.00002361      -0.00001691       0.00006289
Si      19.36966628      14.11313039      23.41429756      -0.00003514       0.00009301      -0.00005031
Si      18.74250443      16.31133987      22.79429888       0.00010702      -0.00002954       0.00009980
Si      31.43089747      12.12938304      22.82845276       0.00005982       0.00011028       0.00004194
Si      27.36978447      13.30442644      23.08263658      -0.00013242       0.00007003      -0.00005800
Si      26.91443574      11.04822995      22.85822278      -0.00004633       0.00005837       0.00001034
Si      21.19930279      13.42521463      22.11521984      -0.00000746      -0.00005475       0.00001588
Si      29.75231174       6.87000555      25.02438706       0.00003285      -0.00000247      -0.00001026
Si      30.91100744       4.84809628      28.15537461      -0.00000527       0.00000834      -0.00002613
Si      27.53728611       7.74950111      24.69180154       0.00000262       0.00000050       0.00003734
Si      24.22462262      10.11377187      25.10903583      -0.00002348      -0.00000726       0.00000973
Si      23.16062319       4.83654758      29.22162997       0.00000629       0.00001601       0.00006358
Si      21.44590080       4.83233127      27.64783084       0.00004531      -0.00010644       0.00000749
Ge      17.05510547       4.37540456      27.92043164      -0.00003878      -0.00007838       0.00006236
Si      30.20763104       1.25646425      29.26342235      -0.00021133      -0.00418644       0.00344955
Si      32.43005394       1.39628228      28.45914478       0.00005450      -0.00029025       0.00008992
Si      26.24713896       0.20581612      29.16700814       0.00018801       0.00015447      -0.00004694
Si      25.21202057       2.18367734      29.77327781       0.00004821      -0.00008566       0.00005784
Si      20.48543861       2.70096219      27.75916593       0.00001818       0.00003189       0.00002939
Si      20.61776060       1.58254757      29.82802456       0.00000542       0.00002600       0.00009003
Si      31.89068422      14.83415950      25.31810965       0.00005214       0.00000725       0.00008713
Ge      26.37225523      14.39706856      24.99421352      -0.00005966       0.00003765       0.00000016
Ge      23.10382422      15.66615283      26.61090439      -0.00003695       0.00007420      -0.00005614
Si      23.95561570      14.04640913      24.99958179      -0.00004325       0.00004544      -0.00003416
Si      19.63635814      13.78203880      25.75449782       0.00002047       0.00003106       0.00002270
Si      17.45934400      14.09788352      26.63327451      -0.00006866       0.00001756       0.00003867
Si      27.37992975      13.64392534      27.06699742      -0.00005923       0.00003479       0.00006353
Si      27.87798839      11.36552728      26.50422362       0.00001101      -0.00000862       0.00006203
Ge      23.14597171      12.01534072      25.99585043       0.00004906      -0.00003238      -0.00004671
Si      20.72502801      11.71186892      25.75140852       0.00007378       0.00000919       0.00000479
Si      16.38725771      12.04402781      26.98518130       0.00006462      -0.00006586      -0.00000455
Si      30.04970037      10.51180152      26.14835310       0.00001076       0.00002442       0.00000877
Si      29.94403787       8.25915992      26.88405532       0.00002515       0.00013539       0.00006196
Si      26.60596710      10.02532531      24.98298333       0.00002638       0.00005511       0.00004606
Si      23.33353105       8.28886669      26.32480348       0.00002163       0.00002664      -0.00001632
Si      32.38704053      12.20842697      31.50009152       0.00013243      -0.00007097       0.00004446
Si      28.71620651      15.59053146      15.83730049      -0.00001623       0.00001354      -0.00006707
Si      20.93345169      13.93544100      16.00488448       0.00002817      -0.00000719       0.00006576
Ge      23.68380907       0.42474856       7.42170087       0.00004285       0.00001785       0.00000621
Si      21.54668584       1.64621945       6.71017044       0.00002924       0.00002388      -0.00002904
Si      16.61475873       0.25643842       7.56362825       0.00003269      -0.00002171       0.00001803
Si      29.69038740      14.51328730       4.25563206       0.00001325      -0.00000092      -0.00007824
Si      24.36299474      13.71598216       3.31395001      -0.00001385       0.00000904      -0.00001371
Si      24.38977182      16.09292294       3.28866180      -0.00014944       0.00001291       0.00006944
Si      20.76203442      15.71663473       4.63155790       0.00011622      -0.00000823       0.00006091
Si      30.34814671      12.22430262       4.14803142       0.00000785      -0.00004265      -0.00000503
Si      32.67630513      12.03283203       4.37157195       0.00002756      -0.00005770      -0.00000426
Si      24.21059979      12.34502022       5.22810911      -0.00001787       0.00000285      -0.00005490
Si      18.69686973      12.92540027       2.74867734      -0.00003844       0.00001583       0.00006245
Si      17.06091098      13.41715962       4.40749389      -0.00006204       0.00000224      -0.00004557
Si      24.96009888      10.09712277       5.24230447       0.00002467      -0.00000704      -0.00003291
Si      27.13287183      10.11181817       4.35560081       0.00001011      -0.00011911      -0.00003184
Si      23.24247957       9.13293393       3.96771935      -0.00004030       0.00000604      -0.00005280
Si      19.83681968      10.89023490       3.15051340       0.00004651      -0.00000435       0.00002042
Si      20.43093242      10.65064881       5.38371286       0.00002955       0.00010036      -0.00002484
Si      21.34570672       8.48155376       5.27098345      -0.00000494      -0.00001317       0.00003963
Si      31.61321867       8.10564383       5.34406265      -0.00002988       0.00001246       0.00002482
Ge      27.74176167       7.82181668       4.64691225       0.00001767      -0.00007334      -0.00000129
Si      29.89740282       6.97035042       4.18025671      -0.00001600       0.00001158       0.00005091
Ge      26.32231282       6.33047134       3.42433379      -0.00011209      -0.00002385      -0.00001766
Si      20.00558189       6.74021793       4.36194674      -0.00008441      -0.00005729       0.00004966
Si      25.73789094       1.61543996       8.07074238       0.00002144       0.00000866      -0.00002473
Si      17.84625078       7.42621536       3.63606485       0.00005213       0.00004679      -0.00006322
Si      27.02684266       1.12922744       6.16869699       0.00000625      -0.00010839      -0.00001635
Si      17.87408017       3.96008801       5.89611756      -0.00004797       0.00005827       0.00004511
Si      28.23636047      12.40920546       7.43203192       0.00003475      -0.00007169      -0.00002702
Ge      28.98197224      10.99299010       5.68735008       0.00002505      -0.00003076       0.00000475
Si      26.01544080      12.59717407       8.05261596      -0.00000024      -0.00010350      -0.00000394
Si      22.14230978      11.98761239       6.29900251       0.00002912      -0.00001462      -0.00002686
Si      16.66715928      11.75168274       5.98563407       0.00006071       0.00009696       0.00005424
Si      18.78607292      11.38943385       6.86193066      -0.00007292       0.00008274      -0.00005731
Si      30.33962213       9.39321777       6.82999883       0.00000447      -0.00006626      -0.00004397
Si      32.13492067      10.07494563       8.18663009      -0.00006858      -0.00001879      -0.00001492
Si      25.13269314       8.68154383       7.19489506      -0.00005240      -0.00001681       0.00000293
Si      32.43586673       6.02344021       6.06118888       0.00004589       0.00003616       0.00001514
Ge      27.19102294       7.47761965       7.00553631      -0.00000301      -0.00001772       0.00001926
Si      23.62936057       7.08001867       8.14296793      -0.00006565      -0.00005040      -0.00000346
Si      21.58941524       7.88260333       7.49522936      -0.00006990      -0.00002249       0.00006120
Si      19.86840690       6.40270845       7.91306596      -0.00005345      -0.00001529      -0.00006077
Si      16.65455483       7.94114600       5.61730811       0.00002653      -0.00001475      -0.00001465
Si      18.02084410       7.83040825       7.62775735       0.00004214      -0.00007603      -0.00002639
Si      31.32850117       5.12918342       7.94443539       0.00007931       0.00006193       0.00002180
Si      29.12694460       4.15476205       7.32974989       0.00010940      -0.00003864      -0.00005928
Si      26.92174370       5.11064335       7.08338302       0.00008252      -0.00002762       0.00000761
Si      23.30332340       4.71323901       7.96796048      -0.00008214      -0.00002443       0.00006155
Si      22.02856928       3.91402838       6.16168559      -0.00002357      -0.00000309       0.00000590
Si      19.95368930       5.07157733       5.99683307       0.00000536      -0.00007991       0.00006181
Si      17.00074668       3.97420836       8.17670382      -0.00001756      -0.00003792      -0.00006350
Si      29.21747431       1.83290413       6.75054739       0.00003763      -0.00002718       0.00001837
Si      17.63029439      15.07525064       5.98054932      -0.00006094       0.00004783       0.00010360
Ge      31.79153849       3.93010766       4.86386731       0.00012914       0.00002091       0.00007774
Si      28.19013043       3.27581037       3.37809537      -0.00001874      -0.00005016      -0.00004543
Ge      24.59447603       8.38180053       0.57477048      -0.00003504       0.00000443      -0.00000689
Si      22.10661290      10.69140870       2.49487353       0.00000140       0.00004192       0.00007942
Si      22.38802580       9.45911393       0.48691061      -0.00005664       0.00002650       0.00004734
Ge      17.16357479      10.15695148       0.96000782      -0.00003230       0.00006807       0.00002626
Si      18.84317527       9.01453734       2.15298564       0.00003517       0.00001447      -0.00005318
Si      30.55171511       7.27052591       1.95721939       0.00005663      -0.00000350       0.00003875
Si      29.36987170       5.58506620       0.81055073       0.00002465      -0.00003644       0.00010423
Si      23.15783577       5.49617965       2.47226448      -0.00000538      -0.00001084       0.00003847
Si      24.35730275       7.46823112       2.73121887      -0.00002319       0.00001876       0.00014821
Si      20.54880483       7.90779140       0.89748370       0.00000343       0.00000466       0.00000881