 128  128
1 1
    18.304579000000007     0.000000000000000    -0.000000000000000
     0.000000000000000    18.304579000000000    -0.000000000000000
    -0.000000000000000    -0.000000000000000    18.139613999999998
1 2
    -1.594616818314531     0.139981167180389     0.115718333333333
    -0.139832166538905     0.293949151647863    -0.004496403902654
    -0.115485965564854    -0.004533882495511     0.265855500000000
1 3
    -0.573190335476129     0.000000000000000    -0.000000000000000
     0.000000000000000     0.047784335476129     0.004511415009674
     0.000000000000000     0.004602484836480     0.046756000000000
1 4
    -1.594616818314530    -0.139981167180389    -0.115718333333333
     0.139832166538905     0.293949151647864    -0.004496403902654
     0.115485965564854    -0.004533882495511     0.265855500000000
1 5
    -0.178127821505167     0.957642468636324    -0.053965166666667
     0.677829137173916    -1.122539845161499     0.102463218439895
     0.061669440206732    -0.097746838573955     0.265855500000000
1 6
    -0.178127821505167    -0.957642468636324     0.053965166666667
    -0.677829137173917    -1.122539845161499     0.102463218439895
    -0.061669440206732    -0.097746838573955     0.265855500000000
1 7
    -0.144467093986743    -0.113115782073874     0.004644000000000
    -0.113115782386093    -0.013852239346590     0.002681214653817
    -0.002936846074143    -0.001695588869135     0.037158500000000
1 8
    -0.144467093986743     0.113115782073874    -0.004644000000000
     0.113115782386093    -0.013852239346590     0.002681214653817
     0.002936846074143    -0.001695588869135     0.037158500000000
1 9
    -0.107459332261935     0.268889919704578    -0.003907000000000
     0.268889920446761    -0.417946667738065    -0.002255707504837
    -0.003985868794426    -0.002301242418240     0.046756000000000
1 10
     0.051679362939731     0.000000000000000    -0.000000000000000
    -0.000000000000000    -0.209759362939731     0.003326114905392
    -0.000000000000000    -0.005394258445464     0.037071500000000
1 11
    -0.107459332261935    -0.268889919704578     0.003907000000000
    -0.268889920446761    -0.417946667738065    -0.002255707504837
     0.003985868794426    -0.002301242418240     0.046756000000000
1 12
     0.051455187973486     0.000000000000000    -0.000000000000000
    -0.000000000000000    -0.209774521306819    -0.005362429307634
     0.000000000000000     0.003391177738270     0.037158500000000
1 13
    -0.178256860180302     0.677903635816713     0.061753166666667
     0.957716971793511    -1.122410806486364    -0.097966814537241
    -0.053816525358122     0.102280721069467     0.265855500000000
1 14
    -0.144399681469866     0.113206288916091     0.002880500000000
     0.113206289228560    -0.013680318530134    -0.001663057452696
    -0.004671564854798     0.002697129222732     0.037071500000000
1 15
    -0.144399681469866    -0.113206288916091    -0.002880500000000
    -0.113206289228560    -0.013680318530134    -0.001663057452696
     0.004671564854798     0.002697129222732     0.037071500000000
1 16
    -0.178256860180302    -0.677903635816713    -0.061753166666667
    -0.957716971793511    -1.122410806486364    -0.097966814537241
     0.053816525358122     0.102280721069467     0.265855500000000
1 17
     0.183453000000000    -0.000000000000000    -0.000000000000000
     0.000000000000000     0.183453000000000     0.000000000000000
    -0.000000000000000    -0.000000000000000    -0.422968000000000
1 18
    -0.065257428777183    -0.055277460350571    -0.009438500000000
     0.055189206468427     0.103688095443850     0.010753437453632
     0.009648838856007     0.010568198331465    -0.297831000000000
1 19
    -0.104877913075804    -0.000000000000000    -0.000000000000000
    -0.000000000000000     0.022857246409138    -0.000334863156592
    -0.000000000000000    -0.000567434323582    -0.040838000000000
1 20
    -0.065257428777183     0.055277460350571     0.009438500000000
    -0.055189206468427     0.103688095443850     0.010753437453632
    -0.009648838856007     0.010568198331465    -0.297831000000000
1 21
     0.061413499270618     0.017944287989871    -0.004593500000000
     0.128410955010975    -0.022982832603951    -0.013550699511716
    -0.013976747667916     0.003072040389059    -0.297831000000000
1 22
     0.061413499270618    -0.017944287989871     0.004593500000000
    -0.128410955010975    -0.022982832603951    -0.013550699511716
     0.013976747667916     0.003072040389059    -0.297831000000000
1 23
    -0.051372310474637    -0.035233337886518    -0.002027000000000
    -0.035233337983768    -0.010688356192029    -0.001170288997262
     0.000471847585289     0.000272421330007    -0.038114000000000
1 24
    -0.051372310474637     0.035233337886518     0.002027000000000
     0.035233337983768    -0.010688356192029    -0.001170288997262
    -0.000471847585289     0.000272421330007    -0.038114000000000
1 25
    -0.009076543462098     0.055310946458874     0.000290000000000
     0.055310946611542    -0.072944123204569     0.000167431578296
     0.000491412539879     0.000283717161791    -0.040838000000000
1 26
     0.009154085112267    -0.000000000000000    -0.000000000000000
     0.000000000000000    -0.071666085112267    -0.000263849073384
     0.000000000000000     0.002561062895295    -0.038165500000000
1 27
    -0.009076543462098    -0.055310946458874    -0.000290000000000
    -0.055310946611542    -0.072944123204569     0.000167431578296
    -0.000491412539879     0.000283717161791    -0.040838000000000
1 28
     0.009653620949275    -0.000000000000000    -0.000000000000000
    -0.000000000000000    -0.071714287615941     0.002340577994525
    -0.000000000000000    -0.000544842660015    -0.038114000000000
1 29
     0.061489929506565     0.128366827639300    -0.014032000000000
     0.017900161022041    -0.023059262839899     0.002797262058084
    -0.004327908811909    -0.013640238720525    -0.297831000000000
1 30
    -0.051461042556133     0.034996160228016    -0.000228500000000
     0.034996160324612    -0.011050957443867     0.000131924536692
     0.002217945531076    -0.001280531447648    -0.038165500000000
1 31
    -0.051461042556133    -0.034996160228016     0.000228500000000
    -0.034996160324612    -0.011050957443867     0.000131924536692
    -0.002217945531076    -0.001280531447648    -0.038165500000000
1 32
     0.061489929506565    -0.128366827639301     0.014032000000000
    -0.017900161022041    -0.023059262839899     0.002797262058084
     0.004327908811909    -0.013640238720525    -0.297831000000000
1 33
    -0.097050858084064     0.246245994516884    -0.797155500000000
     0.246245995196566     0.187289524750731     0.460237943146159
    -0.575976088171926     0.332539949093915    -1.020917500000000
1 34
    -0.156553861920113     0.033179249743704    -0.089587333333333
     0.037294583179977     0.033855861920113    -0.016929641966812
    -0.084528432497419    -0.013319091008344     0.008856000000000
1 35
    -0.156553861920113    -0.033179249743704     0.089587333333333
    -0.037294583179977     0.033855861920113    -0.016929641966812
     0.084528432497419    -0.013319091008344     0.008856000000000
1 36
    -0.097050858084064    -0.246245994516884     0.797155500000000
    -0.246245995196566     0.187289524750731     0.460237943146159
     0.575976088171926     0.332539949093915    -1.020917500000000
1 37
     0.329459716168128     0.000000000000000     0.000000000000000
    -0.000000000000000    -0.239221049501461    -0.920475886292318
    -0.000000000000000    -0.665079898187830    -1.020917500000000
1 38
    -0.032818372467703    -0.108264790111741    -0.119992500000000
    -0.108264790410571     0.092195039134370    -0.069277702271345
    -0.106805484910231    -0.061664175378749    -0.007550500000000
1 39
    -0.086912273946768    -0.000000000000000    -0.000000000000000
     0.000000000000000     0.016304273946768    -0.011249092660415
    -0.000000000000000    -0.010442145143743    -0.000180000000000
1 40
    -0.032818372467703     0.108264790111741     0.119992500000000
     0.108264790410571     0.092195039134370    -0.069277702271345
     0.106805484910231    -0.061664175378749    -0.007550500000000
1 41
     0.016769495764581     0.062773704000967     0.059455166666667
     0.066889037518926    -0.139467495764581    -0.069120085647639
     0.053798887433171    -0.066544224279643     0.008856000000000
1 42
     0.016769495764581    -0.062773704000967    -0.059455166666667
    -0.066889037518926    -0.139467495764581    -0.069120085647639
    -0.053798887433171    -0.066544224279643     0.008856000000000
1 43
    -0.009499863026616    -0.044694076221686    -0.009742000000000
    -0.044694076345049    -0.061108136973384     0.005624546330208
    -0.009043162976966     0.005221072571872    -0.000180000000000
1 44
    -0.009499863026616     0.044694076221686     0.009742000000000
     0.044694076345049    -0.061108136973384     0.005624546330208
     0.009043162976966     0.005221072571872    -0.000180000000000
1 45
    -0.044262633844468     0.102125953744672    -0.030132166666667
     0.098010620681865    -0.078435366155532     0.086049727614451
    -0.030729545064248     0.079863315287988     0.008856000000000
1 46
    -0.069424000000000    -0.000000000000000    -0.000000000000000
     0.000000000000000    -0.069424000000000     0.000000000000000
    -0.000000000000000    -0.000000000000000    -0.000412000000000
1 47
    -0.044262633844468    -0.102125953744672     0.030132166666667
    -0.098010620681865    -0.078435366155532     0.086049727614451
     0.030729545064248     0.079863315287988     0.008856000000000
1 48
     0.154701744935407    -0.000000000000000    -0.000000000000000
    -0.000000000000000    -0.095325078268740     0.138555404542691
     0.000000000000000     0.123328350757497    -0.007550500000000
1 49
    -0.097131199747662     0.246335498236927     0.576143500000000
     0.246335498916855     0.187312533080995    -0.332636605275921
     0.797564826670157    -0.460474266738698    -1.020933500000000
1 50
    -0.156473641605310     0.037199134147878     0.084577000000000
     0.033143134239358     0.034048308271977     0.013261158351318
     0.089576402535998     0.016817651317341     0.008832500000000
1 51
    -0.156473641605310    -0.037199134147878    -0.084577000000000
    -0.033143134239358     0.034048308271977     0.013261158351318
    -0.089576402535998     0.016817651317341     0.008832500000000
1 52
    -0.097131199747662    -0.246335498236927    -0.576143500000000
    -0.246335498916855     0.187312533080995    -0.332636605275920
    -0.797564826670157    -0.460474266738698    -1.020933500000000
1 53
     0.329534399495324     0.000000000000000    -0.000000000000000
     0.000000000000000    -0.239353066161991     0.665273210551841
     0.000000000000000     0.920948533477396    -1.020933500000000
1 54
    -0.032841972691686    -0.108178649839646     0.106904000000000
    -0.108178650138238     0.092071972691686     0.061721053262628
     0.119946808332947     0.069251321983890    -0.007534500000000
1 55
    -0.086987719040657     0.000000000000000    -0.000000000000000
    -0.000000000000000     0.016184385707323     0.010607656510460
     0.000000000000000     0.011148938849800    -0.000180500000000
1 56
    -0.032841972691686     0.108178649839646    -0.106904000000000
     0.108178650138238     0.092071972691686     0.061721053262628
    -0.119946808332947     0.069251321983890    -0.007534500000000
1 57
     0.016876916496663     0.066940857098344    -0.053773000000000
     0.062884857271917    -0.139302249829997     0.066615251501303
    -0.059352714560905     0.069166614410064     0.008832500000000
1 58
     0.016876916496663    -0.066940857098344     0.053773000000000
    -0.062884857271917    -0.139302249829997     0.066615251501303
     0.059352714560905     0.069166614410064     0.008832500000000
1 59
    -0.009608640479672    -0.044674831775175     0.009186500000000
    -0.044674831898485    -0.061194692853662    -0.005303828255230
     0.009655264282491    -0.005574469424900    -0.000180500000000
1 60
    -0.009608640479672     0.044674831775175    -0.009186500000000
     0.044674831898485    -0.061194692853662    -0.005303828255230
    -0.009655264282491    -0.005574469424900    -0.000180500000000
1 61
    -0.044041274891354     0.098055991246222     0.030804000000000
     0.102111991528068    -0.078384058441980    -0.079876409852621
     0.030223687975093    -0.085984265727405     0.008832500000000
1 62
    -0.069772000000000     0.000000000000000    -0.000000000000000
    -0.000000000000000    -0.069772000000000     0.000000000000000
    -0.000000000000000    -0.000000000000000    -0.000649000000000
1 63
    -0.044041274891354    -0.098055991246222    -0.030804000000000
    -0.102111991528068    -0.078384058441980    -0.079876409852621
    -0.030223687975093    -0.085984265727405     0.008832500000000
1 64
     0.154528945383372     0.000000000000000     0.000000000000000
    -0.000000000000000    -0.095298945383372    -0.123442106525256
     0.000000000000000    -0.138502643967781    -0.007534500000000
1 65
    -1.653031000000000    -0.000000000000000     0.000000000000000
    -0.000000000000000    -1.653031000000000    -0.000000000000000
    -0.000000000000000    -0.000000000000000    -7.449683500000000
1 66
     0.238314945581299     0.058195079316459     0.449041666666667
    -0.072798920884479    -0.199732945581299     0.086894679734576
     0.385124586510463     0.169204871258312    -0.163123000000000
1 67
     0.196608888421551     0.000000000000000     0.000000000000000
    -0.000000000000000    -0.051736221754885     0.013008278933064
     0.000000000000000     0.035049723380129    -0.048358000000000
1 68
     0.238314945581299    -0.058195079316459    -0.449041666666667
     0.072798920884479    -0.199732945581299     0.086894679734576
    -0.385124586510463     0.169204871258312    -0.163123000000000
1 69
    -0.096544621607743    -0.120532340306960    -0.299773833333333
    -0.251526341001216     0.135126621607743     0.345434151360439
    -0.339098010411237     0.248925239450586    -0.163123000000000
1 70
    -0.096544621607743     0.120532340306960     0.299773833333333
     0.251526341001216     0.135126621607743     0.345434151360439
     0.339098010411237     0.248925239450586    -0.163123000000000
1 71
     0.113700642848971     0.054198137841650     0.044964000000000
     0.054198137991246     0.051118023817696     0.025959977539669
     0.034654936302832     0.020008036775577    -0.044450500000000
1 72
     0.113700642848971    -0.054198137841650    -0.044964000000000
    -0.054198137991246     0.051118023817696     0.025959977539669
    -0.034654936302832     0.020008036775577    -0.044450500000000
1 73
     0.010350055789224    -0.107536587010810    -0.011265500000000
    -0.107536587307629     0.134522610877442    -0.006504139466532
    -0.030353950884700    -0.017524861690065    -0.048358000000000
1 74
    -0.041265825247201    -0.000000000000000     0.000000000000000
     0.000000000000000     0.124409825247201     0.049600739044803
     0.000000000000000     0.041261123807148    -0.043315000000000
1 75
     0.010350055789224     0.107536587010810     0.011265500000000
     0.107536587307629     0.134522610877442    -0.006504139466532
     0.030353950884700    -0.017524861690065    -0.048358000000000
1 76
     0.019826714302058     0.000000000000000     0.000000000000000
     0.000000000000000     0.144991952364609    -0.051919955079339
    -0.000000000000000    -0.040016073551154    -0.044450500000000
1 77
    -0.083897323973557    -0.258828260990501     0.149267833333333
    -0.127834261343346     0.122479323973557    -0.432328831095016
     0.046026576099226    -0.418130110708897    -0.163123000000000
1 78
     0.082990912623600    -0.071739660959325     0.042955500000000
    -0.071739661157339     0.000153087376400    -0.024800369522402
     0.035733181455000    -0.020630561903574    -0.043315000000000
1 79
     0.082990912623600     0.071739660959325    -0.042955500000000
     0.071739661157339     0.000153087376400    -0.024800369522402
    -0.035733181455000    -0.020630561903574    -0.043315000000000
1 80
    -0.083897323973557     0.258828260990501    -0.149267833333333
     0.127834261343346     0.122479323973557    -0.432328831095016
    -0.046026576099226    -0.418130110708897    -0.163123000000000
1 81
    -0.479254000000000     0.000000000000000     0.000000000000000
    -0.000000000000000    -0.479254000000000     0.000000000000000
    -0.000000000000000    -0.000000000000000     0.882770500000000
1 82
     0.163858115761737     0.104218290154134    -0.087770833333333
    -0.124194043521997    -0.194338782428403    -0.024937201536388
    -0.375859822281659    -0.270732121277652     0.136227500000000
1 83
     0.165885721693814     0.000000000000000     0.000000000000000
    -0.000000000000000    -0.045664388360481     0.001739556363469
    -0.000000000000000    -0.035328031461479     0.056635000000000
1 84
     0.163858115761737    -0.104218290154134     0.087770833333333
     0.124194043521997    -0.194338782428403    -0.024937201536388
     0.375859822281659    -0.270732121277652     0.136227500000000
1 85
    -0.113439312682521    -0.035903701557735     0.065481666666667
    -0.264316035620626     0.082958646015855    -0.063543170714705
     0.422390806111302    -0.190138093269772     0.136227500000000
1 86
    -0.113439312682521     0.035903701557735    -0.065481666666667
     0.264316035620626     0.082958646015855    -0.063543170714705
    -0.422390806111302    -0.190138093269771     0.136227500000000
1 87
     0.099200596564717     0.042288476338563    -0.013180500000000
     0.042288476455286     0.050370070101950    -0.007609765233556
    -0.039153937292267    -0.022605536204326     0.049864000000000
1 88
     0.099200596564717    -0.042288476338563     0.013180500000000
    -0.042288476455286     0.050370070101950    -0.007609765233556
     0.039153937292267    -0.022605536204326     0.049864000000000
1 89
     0.007223139153093    -0.091603884613785    -0.001506500000000
    -0.091603884866628     0.112998194180240    -0.000869778181735
     0.030594972753560     0.017664015730739     0.056635000000000
1 90
    -0.043300912170492    -0.000000000000000     0.000000000000000
     0.000000000000000     0.107351578837159    -0.016113268685051
    -0.000000000000000    -0.050811554543692     0.045786000000000
1 91
     0.007223139153093     0.091603884613785     0.001506500000000
     0.091603884866628     0.112998194180240    -0.000869778181735
    -0.030594972753560     0.017664015730739     0.056635000000000
1 92
     0.025954806870566    -0.000000000000000     0.000000000000000
     0.000000000000000     0.123615859796100     0.015219530467112
     0.000000000000000     0.045211072408653     0.049864000000000
1 93
    -0.096139803079215    -0.274303911403601    -0.022289166666667
    -0.045891578196937     0.065659136412549     0.088480372251094
     0.046530983829643     0.460870214547423     0.136227500000000
1 94
     0.069688456085246    -0.065234442087987    -0.013954500000000
    -0.065234442268046    -0.005637789418580     0.008056634342525
    -0.044004097101345     0.025405777271846     0.045786000000000
1 95
     0.069688456085246     0.065234442087987     0.013954500000000
     0.065234442268046    -0.005637789418580     0.008056634342525
     0.044004097101345     0.025405777271846     0.045786000000000
1 96
    -0.096139803079215     0.274303911403601     0.022289166666667
     0.045891578196937     0.065659136412549     0.088480372251094
    -0.046530983829643     0.460870214547423     0.136227500000000
1 97
    -5.757969267665636     2.460938662126876     1.736538500000000
     2.460938668919493    -2.916322065667698    -1.002590971816811
     1.764867988327778    -1.018947006738960    -2.187618000000000
1 98
     0.492217280217707    -0.294172955211406    -0.196504166666667
    -0.013526288582074    -0.061497946884374    -0.029286958470466
    -0.010159172012908    -0.026223374595201    -0.065833500000000
1 99
     0.492217280217707     0.294172955211406     0.196504166666667
     0.013526288582074    -0.061497946884374    -0.029286958470466
     0.010159172012908    -0.026223374595201    -0.065833500000000
1 100
    -5.757969267665636    -2.460938662126876    -1.736538500000000
    -2.460938668919493    -2.916322065667698    -1.002590971816811
    -1.764867988327778    -1.018947006738960    -2.187618000000000
1 101
    -1.495498464668730    -0.000000000000000    -0.000000000000000
    -0.000000000000000    -7.178792868664604     2.005181943633623
     0.000000000000000     2.037894013477921    -2.187618000000000
1 102
     0.238368087509942     0.418034654853374    -0.202925000000000
     0.418034656007222    -0.244336754176608    -0.117158803536994
    -0.024549505415046    -0.014173663540288    -0.105886500000000
1 103
     0.178078561393560     0.000000000000000     0.000000000000000
    -0.000000000000000    -0.056147894726893    -0.021721071857429
     0.000000000000000     0.001554280127923    -0.038670000000000
1 104
     0.238368087509942    -0.418034654853374     0.202925000000000
    -0.418034656007222    -0.244336754176608    -0.117158803536994
     0.024549505415046    -0.014173663540288    -0.105886500000000
1 105
    -0.056306821201774    -0.303164248629736     0.123615333333333
    -0.022517582025221     0.487026154535107    -0.155534121282451
     0.027789694610196     0.004313586265149    -0.065833500000000
1 106
    -0.056306821201774     0.303164248629736    -0.123615333333333
     0.022517582025221     0.487026154535107    -0.155534121282451
    -0.027789694610196     0.004313586265149    -0.065833500000000
1 107
     0.002408719303220     0.101423030479384    -0.018811000000000
     0.101423030759329     0.119521947363446     0.010860535928715
     0.001346046077237    -0.000777140063962    -0.038670000000000
1 108
     0.002408719303220    -0.101423030479384     0.018811000000000
    -0.101423030759329     0.119521947363446     0.010860535928715
    -0.001346046077237    -0.000777140063962    -0.038670000000000
1 109
     0.210168540984067    -0.176367203841141    -0.072888833333333
    -0.457013871769245     0.220550792349267     0.184821079752918
     0.017630522597288     0.021909788330053    -0.065833500000000
1 110
     0.167403000000000    -0.000000000000000     0.000000000000000
     0.000000000000000     0.167403000000000     0.000000000000000
    -0.000000000000000    -0.000000000000000    -0.035157500000000
1 111
     0.210168540984067     0.176367203841141     0.072888833333333
     0.457013871769245     0.220550792349267     0.184821079752918
    -0.017630522597288     0.021909788330053    -0.065833500000000
1 112
    -0.485689175019884     0.000000000000000    -0.000000000000000
     0.000000000000000     0.479720508353217     0.234317607073988
     0.000000000000000     0.028347327080577    -0.105886500000000
1 113
    -0.160826959444784     0.085004364472318     0.229721500000000
     0.085004364706945    -0.062672373888550    -0.132629770046685
    -0.074898353574832     0.043242584538610     0.622106500000000
1 114
     0.102283955110878    -0.008757229553379     0.044175333333333
    -0.030659229638004     0.001704044889122    -0.004600904301522
     0.016191644160885     0.011173252201203     0.068294500000000
1 115
     0.102283955110878     0.008757229553379    -0.044175333333333
     0.030659229638004     0.001704044889122    -0.004600904301522
    -0.016191644160885     0.011173252201203     0.068294500000000
1 116
    -0.160826959444784    -0.085004364472318    -0.229721500000000
    -0.085004364706945    -0.062672373888550    -0.132629770046685
     0.074898353574832     0.043242584538610     0.622106500000000
1 117
    -0.013595081110433     0.000000000000000    -0.000000000000000
    -0.000000000000000    -0.209904252222901     0.265259540093370
    -0.000000000000000    -0.086485169077221     0.622106500000000
1 118
    -0.014388871572034     0.085429009607044     0.058807000000000
     0.085429009842843    -0.113033795094632     0.033952237327091
     0.018609326951101     0.010744099909828     0.075289500000000
1 119
     0.062395380476042     0.000000000000000     0.000000000000000
    -0.000000000000000    -0.032918713809375     0.007678758590819
     0.000000000000000     0.000303221112120     0.034288000000000
1 120
    -0.014388871572034    -0.085429009607044    -0.058807000000000
    -0.085429009842843    -0.113033795094632     0.033952237327091
    -0.018609326951101     0.010744099909828     0.075289500000000
1 121
     0.009781194964164    -0.022747263844404    -0.018103166666667
    -0.044649263967644     0.094206805035836     0.040557413090871
    -0.017772142342928     0.008435749052411     0.068294500000000
1 122
     0.009781194964164     0.022747263844404     0.018103166666667
     0.044649263967644     0.094206805035836     0.040557413090871
     0.017772142342928     0.008435749052411     0.068294500000000
1 123
    -0.009090190238021     0.041272213437979     0.006650000000000
     0.041272213551897     0.038566856904687    -0.003839379295410
     0.000262597186422    -0.000151610556060     0.034288000000000
1 124
    -0.009090190238021    -0.041272213437979    -0.006650000000000
    -0.041272213551897     0.038566856904687    -0.003839379295410
    -0.000262597186422    -0.000151610556060     0.034288000000000
1 125
     0.043916849924957    -0.064357493397783     0.026072166666667
    -0.042455493514968     0.060071150075043    -0.035956508789349
    -0.001580498182044    -0.019609001253613     0.068294500000000
1 126
     0.075516000000000     0.000000000000000     0.000000000000000
    -0.000000000000000     0.075516000000000     0.000000000000000
    -0.000000000000000    -0.000000000000000     0.032086000000000
1 127
     0.043916849924957     0.064357493397783    -0.026072166666667
     0.042455493514968     0.060071150075043    -0.035956508789349
     0.001580498182044    -0.019609001253613     0.068294500000000
1 128
    -0.162356256855932     0.000000000000000     0.000000000000000
     0.000000000000000     0.034933590189265    -0.067904474654183
    -0.000000000000000    -0.021488199819656     0.075289500000000
2 1
    -1.594616815180770    -0.139981169376039    -0.115718333333333
     0.139832166600759     0.293949152423503    -0.004496403902654
     0.115485965320364    -0.004533882366869     0.265855500000000
2 2
    18.304578962107140     0.000000021877460     0.000000000000000
     0.000000021877460    18.304579037892875     0.000000000000000
     0.000000000000000     0.000000000000000    18.139613999999998
2 3
    -1.594616814846161     0.139981165564297     0.115718333333333
    -0.139832165898110     0.293949152089251    -0.004496403902654
    -0.115485965331202    -0.004533882642925     0.265855500000000
2 4
    -0.573190334289551    -0.000000000685072     0.000000000000000
     0.000000000057111     0.047784335575049     0.004511415009674
     0.000000000005501     0.004602484846008     0.046756000000000
2 5
    -0.144467093552482     0.113115782135373    -0.004644000000000
     0.113115782135373    -0.013852239240071     0.002681214653817
     0.002936846066037    -0.001695588869135     0.037158500000000
2 6
    -0.178127819991855     0.957642470405872    -0.053965166666667
     0.677829134429073    -1.122539846675168     0.102463218439895
     0.061669439962242    -0.097746838702597     0.265855500000000
2 7
    -0.178127822280985    -0.957642470831665     0.053965166666667
    -0.677829137112371    -1.122539848295438     0.102463218439895
    -0.061669440195894    -0.097746838850011     0.265855500000000
2 8
    -0.144467093822872    -0.113115782480704     0.004644000000000
    -0.113115782168485    -0.013852239510461     0.002681214653817
    -0.002936846070090    -0.001695588876155     0.037158500000000
2 9
     0.051455187866967     0.000000000061499    -0.000000000000000
    -0.000000000250720    -0.209774521741080    -0.005362429307634
     0.000000000004053     0.003391177745290     0.037158500000000
2 10
    -0.107459331718106     0.268889920132781    -0.003907000000000
     0.268889919390598    -0.417946668281894    -0.002255707504837
    -0.003985868788925    -0.002301242427768     0.046756000000000
2 11
     0.051679362832748     0.000000000061767     0.000000000000000
    -0.000000000250702    -0.209759363373961     0.003326114905392
    -0.000000000006447    -0.005394258456631     0.037071500000000
2 12
    -0.107459332360855    -0.268889920389650     0.003907000000000
    -0.268889920389650    -0.417946668924644    -0.002255707504837
     0.003985868783424    -0.002301242418240     0.046756000000000
2 13
    -0.178256860621511    -0.677903637433113    -0.061753166666667
    -0.957716971152407    -1.122410809954556    -0.097966814537241
     0.053816525368960     0.102280721345522     0.265855500000000
2 14
    -0.178256859001064     0.677903637007011     0.061753166666667
     0.957716968469418    -1.122410807665247    -0.097966814537241
    -0.053816525124470     0.102280721216880     0.265855500000000
2 15
    -0.144399681035636     0.113206288977858     0.002880500000000
     0.113206288977858    -0.013680318423151    -0.001663057452696
    -0.004671564841903     0.002697129222732     0.037071500000000
2 16
    -0.144399681306243    -0.113206289323028    -0.002880500000000
    -0.113206289010559    -0.013680318693757    -0.001663057452696
     0.004671564848350     0.002697129233899     0.037071500000000
2 17
    -0.065257428576025     0.055277460387007     0.009438500000000
    -0.055189206230252     0.103688095592536     0.010753437453632
    -0.009648838823401     0.010568198341811    -0.297831000000000
2 18
     0.183452999620228     0.000000000219261     0.000000000000000