structures/coords.lmp (written by ASE) 

2 	 atoms 
1  atom types
0.0      3.8395898218429529  xlo xhi
0.0      3.3251823258281639  ylo yhi
0.0      3.1350119616996674  zlo zhi
     1.9197949109214765      1.9197949109214765      1.1083941086093874  xy xz yz


Atoms 

     1   1                       0                       0                       0
     2   1      1.9197949109214762      1.1083941086093876     0.78375299042491642
