54
Lattice="0.0 5.349 5.349 5.349 0.0 5.349 5.349 5.349 0.0" Properties=species:S:1:pos:R:3:forces:R:3 energy=-398.00772658408437 stress="0.0008345680023383996 -6.9585873642045645e-06 -5.14100905184975e-16 -6.9585873642045645e-06 0.000834568002338878 5.885824290105811e-16 -5.14100905184975e-16 5.885824290105811e-16 0.0008345649118247867" free_energy=-398.00772658408437 pbc="T T T"
C        0.00000000       0.00000000       0.00000000      -0.00029873      -0.00029873      -0.00135684
C        0.89150000       0.89150000       0.89150000       0.00000000       0.00000000       0.00607834
C        1.78300000       1.78300000       0.00000000       0.00029873       0.00029873      -0.00135684
C        2.67450000       2.67450000       0.89150000      -0.00015835      -0.00015835       0.00009501
C        3.56600000       3.56600000       0.00000000      -0.00000000      -0.00000000       0.00000000
C        4.45750000       4.45750000       0.89150000       0.00015835       0.00015835       0.00009501
C        1.78300000       0.00000000       1.78300000      -0.00029857       0.00029857      -0.00135607
C        2.67450000       0.89150000       2.67450000      -0.00014011       0.00015833      -0.00012905
C        3.56600000       1.78300000       1.78300000       0.00000000       0.00000000      -0.00000000
C        4.45750000       2.67450000       2.67450000      -0.00000000       0.00000000       0.00000000
C        5.34900000       3.56600000       1.78300000       0.00000000      -0.00000000      -0.00000000
C        6.24050000       4.45750000       2.67450000      -0.00031664       0.00029843      -0.00003412
C        3.56600000       0.00000000       3.56600000      -0.00000000       0.00000000       0.00000000
C        4.45750000       0.89150000       4.45750000      -0.00014014      -0.00015834      -0.00012905
C        5.34900000       1.78300000       3.56600000      -0.00000000       0.00000000       0.00000000
C        6.24050000       2.67450000       4.45750000       0.00029845      -0.00001819      -0.00025810
C        7.13200000       3.56600000       3.56600000       0.00029857      -0.00029857      -0.00135607
C        8.02350000       4.45750000       4.45750000       0.00015833      -0.00014011      -0.00012905
C        0.00000000       1.78300000       1.78300000       0.00029857      -0.00029857      -0.00135607
C        0.89150000       2.67450000       2.67450000       0.00015833      -0.00014011      -0.00012905
C        1.78300000       3.56600000       1.78300000       0.00000000       0.00000000      -0.00000000
C        2.67450000       4.45750000       2.67450000      -0.00000000      -0.00000000       0.00000000
C        3.56600000       5.34900000       1.78300000       0.00000000       0.00000000      -0.00000000
C        4.45750000       6.24050000       2.67450000       0.00029843      -0.00031664      -0.00003412
C        1.78300000       1.78300000       3.56600000       0.00000000      -0.00000000       0.00000000
C        2.67450000       2.67450000       4.45750000      -0.00000000      -0.00000000       0.00000000
C        3.56600000       3.56600000       3.56600000       0.00000000       0.00000000      -0.00000000
C        4.45750000       4.45750000       4.45750000       0.00000000      -0.00000000       0.00000000
C        5.34900000       5.34900000       3.56600000       0.00000000      -0.00000000      -0.00000000
C        6.24050000       6.24050000       4.45750000       0.00000000      -0.00000000      -0.00000000
C        3.56600000       1.78300000       5.34900000      -0.00000000      -0.00000000      -0.00000000
C        4.45750000       2.67450000       6.24050000      -0.00001818       0.00031665      -0.00003412
C        5.34900000       3.56600000       5.34900000      -0.00000000       0.00000000      -0.00000000
C        6.24050000       4.45750000       6.24050000      -0.00000000      -0.00000000      -0.00000000
C        7.13200000       5.34900000       5.34900000       0.00000000       0.00000000      -0.00000000
C        8.02350000       6.24050000       6.24050000      -0.00015834      -0.00014014      -0.00012905
C        0.00000000       3.56600000       3.56600000       0.00000000      -0.00000000       0.00000000
C        0.89150000       4.45750000       4.45750000      -0.00015834      -0.00014014      -0.00012905
C        1.78300000       5.34900000       3.56600000       0.00000000      -0.00000000       0.00000000
C        2.67450000       6.24050000       4.45750000      -0.00001819       0.00029845      -0.00025810
C        3.56600000       7.13200000       3.56600000      -0.00029857       0.00029857      -0.00135607
C        4.45750000       8.02350000       4.45750000      -0.00014011       0.00015833      -0.00012905
C        1.78300000       3.56600000       5.34900000      -0.00000000      -0.00000000      -0.00000000
C        2.67450000       4.45750000       6.24050000       0.00031665      -0.00001818      -0.00003412
C        3.56600000       5.34900000       5.34900000      -0.00000000      -0.00000000       0.00000000
C        4.45750000       6.24050000       6.24050000      -0.00000000       0.00000000      -0.00000000
C        5.34900000       7.13200000       5.34900000       0.00000000       0.00000000      -0.00000000
C        6.24050000       8.02350000       6.24050000      -0.00014014      -0.00015834      -0.00012905
C        3.56600000       3.56600000       7.13200000       0.00029873       0.00029873      -0.00135684
C        4.45750000       4.45750000       8.02350000      -0.00015835      -0.00015835       0.00009501
C        5.34900000       5.34900000       7.13200000       0.00000000      -0.00000000      -0.00000000
C        6.24050000       6.24050000       8.02350000       0.00015835       0.00015835       0.00009501
C        7.13200000       7.13200000       7.13200000      -0.00029873      -0.00029873      -0.00135684
C        8.02350000       8.02350000       8.02350000      -0.00000000      -0.00000000       0.00607834
