 1166

    1
0.0000000000e+00 0.0000000000e+00 0.0000000000e+00
0.0000000000e+00 0.0000000000e+00 0.0000000000e+00
     1      1      1
 1  1  1     0.0000000000e+00
 1  1  2     0.0000000000e+00
 1  1  3     0.0000000000e+00
 1  2  1     0.0000000000e+00
 1  2  2     0.0000000000e+00
 1  2  3     3.3519821931e+01
 1  3  1     0.0000000000e+00
 1  3  2     3.3519821931e+01
 1  3  3     0.0000000000e+00
 2  1  1     0.0000000000e+00
 2  1  2     0.0000000000e+00
 2  1  3     3.3519821931e+01
 2  2  1     0.0000000000e+00
 2  2  2     0.0000000000e+00
 2  2  3     0.0000000000e+00
 2  3  1     3.3519821931e+01
 2  3  2     0.0000000000e+00
 2  3  3     0.0000000000e+00
 3  1  1     0.0000000000e+00
 3  1  2     3.3519821931e+01
 3  1  3     0.0000000000e+00
 3  2  1     3.3519821931e+01
 3  2  2     0.0000000000e+00
 3  2  3     0.0000000000e+00
 3  3  1     0.0000000000e+00
 3  3  2     0.0000000000e+00
 3  3  3     0.0000000000e+00

    2
0.0000000000e+00 0.0000000000e+00 0.0000000000e+00
0.0000000000e+00 0.0000000000e+00 0.0000000000e+00
     1      1      2
 1  1  1    -3.0962511029e+00
 1  1  2    -6.2045971438e+00
 1  1  3    -6.2045971438e+00
 1  2  1    -6.1837902268e+00
 1  2  2    -6.1837902268e+00
 1  2  3    -8.4556252578e+00
 1  3  1    -6.1837902268e+00
 1  3  2    -8.4556252578e+00
 1  3  3    -6.1837902268e+00
 2  1  1    -6.1837902268e+00
 2  1  2    -6.1837902268e+00
 2  1  3    -8.4556252578e+00
 2  2  1    -6.2045971438e+00
 2  2  2    -3.0962511029e+00
 2  2  3    -6.2045971438e+00
 2  3  1    -8.4556252578e+00
 2  3  2    -6.1837902268e+00
 2  3  3    -6.1837902268e+00
 3  1  1    -6.1837902268e+00
 3  1  2    -8.4556252578e+00
 3  1  3    -6.1837902268e+00
 3  2  1    -8.4556252578e+00
 3  2  2    -6.1837902268e+00
 3  2  3    -6.1837902268e+00
 3  3  1    -6.2045971438e+00
 3  3  2    -6.2045971438e+00
 3  3  3    -3.0962511029e+00

    3
0.0000000000e+00 0.0000000000e+00 0.0000000000e+00
-2.6996850215e+00 0.0000000000e+00 2.6996850215e+00
     1      1      1
 1  1  1     1.3048349053e-01
 1  1  2     9.7173687897e-02
 1  1  3    -1.7791369230e-01
 1  2  1     8.1967628652e-02
 1  2  2    -7.0604855142e-02
 1  2  3     6.8236721104e-02
 1  3  1    -1.7875484678e-01
 1  3  2    -3.8489926550e-02
 1  3  3     1.7875484678e-01
 2  1  1     8.1967628652e-02
 2  1  2    -7.0604855142e-02
 2  1  3     6.8236721104e-02
 2  2  1    -1.1220483390e-01
 2  2  2    -1.3280092307e-02
 2  2  3     1.1220483390e-01
 2  3  1     6.8236721104e-02
 2  3  2     7.0604855142e-02
 2  3  3     8.1967628652e-02
 3  1  1    -1.7875484678e-01
 3  1  2    -3.8489926550e-02
 3  1  3     1.7875484678e-01
 3  2  1     6.8236721104e-02
 3  2  2     7.0604855142e-02
 3  2  3     8.1967628652e-02
 3  3  1     1.7791369230e-01
 3  3  2     9.7173687897e-02
 3  3  3    -1.3048349053e-01

    4
0.0000000000e+00 0.0000000000e+00 0.0000000000e+00
-2.6996850215e+00 0.0000000000e+00 2.6996850215e+00
     1      1      2
 1  1  1    -1.5426619570e-02
 1  1  2     5.1887236789e-02
 1  1  3     2.8252543194e-02
 1  2  1    -6.6942469106e-02
 1  2  2     6.6942469106e-02
 1  2  3     4.0787289666e-02
 1  3  1    -1.2543896356e-02
 1  3  2    -2.3537745138e-02
 1  3  3     5.2994478375e-03
 2  1  1    -6.6942469106e-02
 2  1  2     6.6942469106e-02
 2  1  3     4.0787289666e-02
 2  2  1    -5.1887236789e-02
 2  2  2     1.5426619570e-02
 2  2  3     2.8252543194e-02
 2  3  1    -2.3537745138e-02
 2  3  2    -1.2543896356e-02
 2  3  3    -5.2994478375e-03
 3  1  1    -1.2543896356e-02
 3  1  2    -2.3537745138e-02
 3  1  3     5.2994478375e-03
 3  2  1    -2.3537745138e-02
 3  2  2    -1.2543896356e-02
 3  2  3    -5.2994478375e-03
 3  3  1     2.7920560861e-02
 3  3  2    -2.7920560861e-02
 3  3  3    -2.5711032617e-03

    5
0.0000000000e+00 0.0000000000e+00 0.0000000000e+00
2.6996850215e+00 0.0000000000e+00 -2.6996850215e+00
     1      1      1
 1  1  1    -1.3048349053e-01
 1  1  2     9.7173687897e-02
 1  1  3     1.7791369230e-01
 1  2  1     8.1967628652e-02
 1  2  2     7.0604855142e-02
 1  2  3     6.8236721104e-02
 1  3  1     1.7875484678e-01
 1  3  2    -3.8489926550e-02
 1  3  3    -1.7875484678e-01
 2  1  1     8.1967628652e-02
 2  1  2     7.0604855142e-02
 2  1  3     6.8236721104e-02
 2  2  1     1.1220483390e-01
 2  2  2    -1.3280092307e-02
 2  2  3    -1.1220483390e-01
 2  3  1     6.8236721104e-02
 2  3  2    -7.0604855142e-02
 2  3  3     8.1967628652e-02
 3  1  1     1.7875484678e-01
 3  1  2    -3.8489926550e-02
 3  1  3    -1.7875484678e-01
 3  2  1     6.8236721104e-02
 3  2  2    -7.0604855142e-02
 3  2  3     8.1967628652e-02
 3  3  1    -1.7791369230e-01
 3  3  2     9.7173687897e-02
 3  3  3     1.3048349053e-01

    6
0.0000000000e+00 0.0000000000e+00 0.0000000000e+00
2.6996850215e+00 0.0000000000e+00 -2.6996850215e+00
     1      1      2
 1  1  1    -2.5711032617e-03
 1  1  2    -2.7920560861e-02
 1  1  3     2.7920560861e-02
 1  2  1    -5.2994478375e-03
 1  2  2    -1.2543896356e-02
 1  2  3    -2.3537745138e-02
 1  3  1     5.2994478375e-03
 1  3  2    -2.3537745138e-02
 1  3  3    -1.2543896356e-02
 2  1  1    -5.2994478375e-03
 2  1  2    -1.2543896356e-02
 2  1  3    -2.3537745138e-02
 2  2  1     2.8252543194e-02
 2  2  2     1.5426619570e-02
 2  2  3    -5.1887236789e-02
 2  3  1     4.0787289666e-02
 2  3  2     6.6942469106e-02
 2  3  3    -6.6942469106e-02
 3  1  1     5.2994478375e-03
 3  1  2    -2.3537745138e-02
 3  1  3    -1.2543896356e-02
 3  2  1     4.0787289666e-02
 3  2  2     6.6942469106e-02
 3  2  3    -6.6942469106e-02
 3  3  1     2.8252543194e-02
 3  3  2     5.1887236789e-02
 3  3  3    -1.5426619570e-02

    7
0.0000000000e+00 0.0000000000e+00 0.0000000000e+00
0.0000000000e+00 2.6996850215e+00 2.6996850215e+00
     1      1      1
 1  1  1     1.3280092307e-02
 1  1  2     1.1220483390e-01
 1  1  3     1.1220483390e-01
 1  2  1     7.0604855142e-02
 1  2  2    -8.1967628652e-02
 1  2  3     6.8236721104e-02
 1  3  1     7.0604855142e-02
 1  3  2     6.8236721104e-02
 1  3  3    -8.1967628652e-02
 2  1  1     7.0604855142e-02
 2  1  2    -8.1967628652e-02
 2  1  3     6.8236721104e-02
 2  2  1    -9.7173687897e-02
 2  2  2    -1.3048349053e-01
 2  2  3    -1.7791369230e-01
 2  3  1    -3.8489926550e-02
 2  3  2    -1.7875484678e-01
 2  3  3    -1.7875484678e-01
 3  1  1     7.0604855142e-02
 3  1  2     6.8236721104e-02
 3  1  3    -8.1967628652e-02
 3  2  1    -3.8489926550e-02
 3  2  2    -1.7875484678e-01
 3  2  3    -1.7875484678e-01
 3  3  1    -9.7173687897e-02
 3  3  2    -1.7791369230e-01
 3  3  3    -1.3048349053e-01

    8
0.0000000000e+00 0.0000000000e+00 0.0000000000e+00
2.6996850215e+00 2.6996850215e+00 0.0000000000e+00
     1      1      1
 1  1  1    -1.3048349053e-01
 1  1  2    -1.7791369230e-01
 1  1  3    -9.7173687897e-02
 1  2  1    -1.7875484678e-01
 1  2  2    -1.7875484678e-01
 1  2  3    -3.8489926550e-02
 1  3  1    -8.1967628652e-02
 1  3  2     6.8236721104e-02
 1  3  3     7.0604855142e-02
 2  1  1    -1.7875484678e-01
 2  1  2    -1.7875484678e-01
 2  1  3    -3.8489926550e-02
 2  2  1    -1.7791369230e-01
 2  2  2    -1.3048349053e-01
 2  2  3    -9.7173687897e-02
 2  3  1     6.8236721104e-02
 2  3  2    -8.1967628652e-02
 2  3  3     7.0604855142e-02
 3  1  1    -8.1967628652e-02
 3  1  2     6.8236721104e-02
 3  1  3     7.0604855142e-02
 3  2  1     6.8236721104e-02
 3  2  2    -8.1967628652e-02
 3  2  3     7.0604855142e-02
 3  3  1     1.1220483390e-01
 3  3  2     1.1220483390e-01
 3  3  3     1.3280092307e-02

    9
0.0000000000e+00 0.0000000000e+00 0.0000000000e+00
-2.6996850215e+00 -5.3993700430e+00 -2.6996850215e+00
     1      1      2
 1  1  1    -1.5426619570e-02
 1  1  2    -2.8252543194e-02
 1  1  3    -5.1887236789e-02
 1  2  1     1.2543896356e-02
 1  2  2     5.2994478375e-03
 1  2  3    -2.3537745138e-02
 1  3  1     6.6942469106e-02
 1  3  2     4.0787289666e-02
 1  3  3     6.6942469106e-02
 2  1  1     1.2543896356e-02
 2  1  2     5.2994478375e-03
 2  1  3    -2.3537745138e-02
 2  2  1     2.7920560861e-02
 2  2  2     2.5711032617e-03
 2  2  3     2.7920560861e-02
 2  3  1    -2.3537745138e-02
 2  3  2     5.2994478375e-03
 2  3  3     1.2543896356e-02
 3  1  1     6.6942469106e-02
 3  1  2     4.0787289666e-02
 3  1  3     6.6942469106e-02
 3  2  1    -2.3537745138e-02
 3  2  2     5.2994478375e-03
 3  2  3     1.2543896356e-02
 3  3  1    -5.1887236789e-02
 3  3  2    -2.8252543194e-02
 3  3  3    -1.5426619570e-02

   10
0.0000000000e+00 0.0000000000e+00 0.0000000000e+00
0.0000000000e+00 -2.6996850215e+00 -2.6996850215e+00
     1      1      1
 1  1  1     1.3280092307e-02
 1  1  2    -1.1220483390e-01
 1  1  3    -1.1220483390e-01
 1  2  1    -7.0604855142e-02
 1  2  2    -8.1967628652e-02
 1  2  3     6.8236721104e-02
 1  3  1    -7.0604855142e-02
 1  3  2     6.8236721104e-02
 1  3  3    -8.1967628652e-02
 2  1  1    -7.0604855142e-02
 2  1  2    -8.1967628652e-02
 2  1  3     6.8236721104e-02
 2  2  1    -9.7173687897e-02
 2  2  2     1.3048349053e-01
 2  2  3     1.7791369230e-01
 2  3  1    -3.8489926550e-02
 2  3  2     1.7875484678e-01
 2  3  3     1.7875484678e-01
 3  1  1    -7.0604855142e-02
 3  1  2     6.8236721104e-02
 3  1  3    -8.1967628652e-02
 3  2  1    -3.8489926550e-02
 3  2  2     1.7875484678e-01
 3  2  3     1.7875484678e-01
 3  3  1    -9.7173687897e-02
 3  3  2     1.7791369230e-01
 3  3  3     1.3048349053e-01

   11
0.0000000000e+00 0.0000000000e+00 0.0000000000e+00
0.0000000000e+00 -2.6996850215e+00 -2.6996850215e+00
     1      1      2
 1  1  1    -3.0962511029e+00
 1  1  2     6.2045971438e+00
 1  1  3     6.2045971438e+00
 1  2  1     6.1837902268e+00
 1  2  2    -6.1837902268e+00
 1  2  3    -8.4556252578e+00
 1  3  1     6.1837902268e+00
 1  3  2    -8.4556252578e+00
 1  3  3    -6.1837902268e+00
 2  1  1     6.1837902268e+00
 2  1  2    -6.1837902268e+00
 2  1  3    -8.4556252578e+00
 2  2  1    -6.2045971438e+00
 2  2  2     3.0962511029e+00
 2  2  3     6.2045971438e+00
 2  3  1    -8.4556252578e+00
 2  3  2     6.1837902268e+00
 2  3  3     6.1837902268e+00
 3  1  1     6.1837902268e+00
 3  1  2    -8.4556252578e+00
 3  1  3    -6.1837902268e+00
 3  2  1    -8.4556252578e+00
 3  2  2     6.1837902268e+00
 3  2  3     6.1837902268e+00
 3  3  1    -6.2045971438e+00
 3  3  2     6.2045971438e+00
 3  3  3     3.0962511029e+00

   12
0.0000000000e+00 0.0000000000e+00 0.0000000000e+00
-2.6996850215e+00 -2.6996850215e+00 0.0000000000e+00
     1      1      1
 1  1  1     1.3048349053e-01
 1  1  2     1.7791369230e-01
 1  1  3    -9.7173687897e-02
 1  2  1     1.7875484678e-01
 1  2  2     1.7875484678e-01
 1  2  3    -3.8489926550e-02
 1  3  1    -8.1967628652e-02
 1  3  2     6.8236721104e-02
 1  3  3    -7.0604855142e-02
 2  1  1     1.7875484678e-01
 2  1  2     1.7875484678e-01
 2  1  3    -3.8489926550e-02
 2  2  1     1.7791369230e-01
 2  2  2     1.3048349053e-01
 2  2  3    -9.7173687897e-02
 2  3  1     6.8236721104e-02
 2  3  2    -8.1967628652e-02
 2  3  3    -7.0604855142e-02
 3  1  1    -8.1967628652e-02
 3  1  2     6.8236721104e-02
 3  1  3    -7.0604855142e-02
 3  2  1     6.8236721104e-02
 3  2  2    -8.1967628652e-02
 3  2  3    -7.0604855142e-02
 3  3  1    -1.1220483390e-01
 3  3  2    -1.1220483390e-01
 3  3  3     1.3280092307e-02

   13
0.0000000000e+00 0.0000000000e+00 0.0000000000e+00
-2.6996850215e+00 -2.6996850215e+00 0.0000000000e+00
     1      1      2
 1  1  1     3.0962511029e+00
 1  1  2     6.2045971438e+00
 1  1  3    -6.2045971438e+00
 1  2  1     6.1837902268e+00
 1  2  2     6.1837902268e+00
 1  2  3    -8.4556252578e+00
 1  3  1    -6.1837902268e+00
 1  3  2    -8.4556252578e+00
 1  3  3     6.1837902268e+00
 2  1  1     6.1837902268e+00
 2  1  2     6.1837902268e+00
 2  1  3    -8.4556252578e+00
 2  2  1     6.2045971438e+00
 2  2  2     3.0962511029e+00
 2  2  3    -6.2045971438e+00
 2  3  1    -8.4556252578e+00
 2  3  2    -6.1837902268e+00
 2  3  3     6.1837902268e+00
 3  1  1    -6.1837902268e+00
 3  1  2    -8.4556252578e+00
 3  1  3     6.1837902268e+00
 3  2  1    -8.4556252578e+00
 3  2  2    -6.1837902268e+00
 3  2  3     6.1837902268e+00
 3  3  1     6.2045971438e+00
 3  3  2     6.2045971438e+00
 3  3  3    -3.0962511029e+00

   14
0.0000000000e+00 0.0000000000e+00 0.0000000000e+00
-2.6996850215e+00 2.6996850215e+00 0.0000000000e+00
     1      1      1
 1  1  1     1.3048349053e-01
 1  1  2    -1.7791369230e-01
 1  1  3     9.7173687897e-02
 1  2  1    -1.7875484678e-01
 1  2  2     1.7875484678e-01
 1  2  3    -3.8489926550e-02
 1  3  1     8.1967628652e-02
 1  3  2     6.8236721104e-02
 1  3  3    -7.0604855142e-02
 2  1  1    -1.7875484678e-01
 2  1  2     1.7875484678e-01
 2  1  3    -3.8489926550e-02
 2  2  1     1.7791369230e-01
 2  2  2    -1.3048349053e-01
 2  2  3     9.7173687897e-02
 2  3  1     6.8236721104e-02
 2  3  2     8.1967628652e-02
 2  3  3     7.0604855142e-02
 3  1  1     8.1967628652e-02
 3  1  2     6.8236721104e-02
 3  1  3    -7.0604855142e-02
 3  2  1     6.8236721104e-02
 3  2  2     8.1967628652e-02
 3  2  3     7.0604855142e-02
 3  3  1    -1.1220483390e-01
 3  3  2     1.1220483390e-01
 3  3  3    -1.3280092307e-02

   15
0.0000000000e+00 0.0000000000e+00 0.0000000000e+00
-2.6996850215e+00 2.6996850215e+00 0.0000000000e+00
     1      1      2
 1  1  1    -1.5426619570e-02
 1  1  2     2.8252543194e-02
 1  1  3     5.1887236789e-02
 1  2  1    -1.2543896356e-02
 1  2  2     5.2994478375e-03
 1  2  3    -2.3537745138e-02
 1  3  1    -6.6942469106e-02
 1  3  2     4.0787289666e-02
 1  3  3     6.6942469106e-02
 2  1  1    -1.2543896356e-02
 2  1  2     5.2994478375e-03
 2  1  3    -2.3537745138e-02
 2  2  1     2.7920560861e-02
 2  2  2    -2.5711032617e-03
 2  2  3    -2.7920560861e-02
 2  3  1    -2.3537745138e-02
 2  3  2    -5.2994478375e-03
 2  3  3    -1.2543896356e-02
 3  1  1    -6.6942469106e-02
 3  1  2     4.0787289666e-02
 3  1  3     6.6942469106e-02
 3  2  1    -2.3537745138e-02
 3  2  2    -5.2994478375e-03
 3  2  3    -1.2543896356e-02
 3  3  1    -5.1887236789e-02
 3  3  2     2.8252543194e-02
 3  3  3     1.5426619570e-02

   16
0.0000000000e+00 0.0000000000e+00 0.0000000000e+00
0.0000000000e+00 2.6996850215e+00 -2.6996850215e+00
     1      1      1
 1  1  1    -1.3280092307e-02
 1  1  2     1.1220483390e-01
 1  1  3    -1.1220483390e-01
 1  2  1     7.0604855142e-02
 1  2  2     8.1967628652e-02
 1  2  3     6.8236721104e-02
 1  3  1    -7.0604855142e-02
 1  3  2     6.8236721104e-02
 1  3  3     8.1967628652e-02
 2  1  1     7.0604855142e-02
 2  1  2     8.1967628652e-02
 2  1  3     6.8236721104e-02
 2  2  1     9.7173687897e-02
 2  2  2    -1.3048349053e-01
 2  2  3     1.7791369230e-01
 2  3  1    -3.8489926550e-02
 2  3  2     1.7875484678e-01
 2  3  3    -1.7875484678e-01
 3  1  1    -7.0604855142e-02
 3  1  2     6.8236721104e-02
 3  1  3     8.1967628652e-02
 3  2  1    -3.8489926550e-02
 3  2  2     1.7875484678e-01
 3  2  3    -1.7875484678e-01
 3  3  1     9.7173687897e-02
 3  3  2    -1.7791369230e-01
 3  3  3     1.3048349053e-01

   17
0.0000000000e+00 0.0000000000e+00 0.0000000000e+00
0.0000000000e+00 2.6996850215e+00 -2.6996850215e+00
     1      1      2
 1  1  1     1.5426619570e-02
 1  1  2     2.8252543194e-02
 1  1  3    -5.1887236789e-02
 1  2  1    -1.2543896356e-02
 1  2  2    -5.2994478375e-03
 1  2  3    -2.3537745138e-02
 1  3  1     6.6942469106e-02
 1  3  2     4.0787289666e-02
 1  3  3    -6.6942469106e-02
 2  1  1    -1.2543896356e-02
 2  1  2    -5.2994478375e-03
 2  1  3    -2.3537745138e-02
 2  2  1    -2.7920560861e-02
 2  2  2    -2.5711032617e-03
 2  2  3     2.7920560861e-02
 2  3  1    -2.3537745138e-02
 2  3  2     5.2994478375e-03
 2  3  3    -1.2543896356e-02
 3  1  1     6.6942469106e-02
 3  1  2     4.0787289666e-02
 3  1  3    -6.6942469106e-02
 3  2  1    -2.3537745138e-02
 3  2  2     5.2994478375e-03
 3  2  3    -1.2543896356e-02
 3  3  1     5.1887236789e-02
 3  3  2     2.8252543194e-02
 3  3  3    -1.5426619570e-02

   18
0.0000000000e+00 0.0000000000e+00 0.0000000000e+00
0.0000000000e+00 5.3993700430e+00 0.0000000000e+00
     1      1      1
 1  1  1     0.0000000000e+00
 1  1  2    -5.2516554597e-03
 1  1  3     0.0000000000e+00
 1  2  1     0.0000000000e+00
 1  2  2     0.0000000000e+00
 1  2  3    -1.1102674368e-02
 1  3  1     0.0000000000e+00
 1  3  2    -9.8457313774e-03
 1  3  3     0.0000000000e+00
 2  1  1     0.0000000000e+00
 2  1  2     0.0000000000e+00
 2  1  3    -1.1102674368e-02
 2  2  1     0.0000000000e+00
 2  2  2    -1.7354947016e-02
 2  2  3     0.0000000000e+00
 2  3  1    -1.1102674368e-02
 2  3  2     0.0000000000e+00
 2  3  3     0.0000000000e+00
 3  1  1     0.0000000000e+00
 3  1  2    -9.8457313774e-03
 3  1  3     0.0000000000e+00
 3  2  1    -1.1102674368e-02
 3  2  2     0.0000000000e+00
 3  2  3     0.0000000000e+00
 3  3  1     0.0000000000e+00
 3  3  2    -5.2516554597e-03
 3  3  3     0.0000000000e+00

   19
0.0000000000e+00 0.0000000000e+00 0.0000000000e+00
-2.6996850215e+00 -2.6996850215e+00 -5.3993700430e+00
     1      1      2
 1  1  1    -1.5426619570e-02
 1  1  2    -5.1887236789e-02
 1  1  3    -2.8252543194e-02
 1  2  1     6.6942469106e-02
 1  2  2     6.6942469106e-02
 1  2  3     4.0787289666e-02
 1  3  1     1.2543896356e-02
 1  3  2    -2.3537745138e-02
 1  3  3     5.2994478375e-03
 2  1  1     6.6942469106e-02
 2  1  2     6.6942469106e-02
 2  1  3     4.0787289666e-02
 2  2  1    -5.1887236789e-02
 2  2  2    -1.5426619570e-02
 2  2  3    -2.8252543194e-02
 2  3  1    -2.3537745138e-02
 2  3  2     1.2543896356e-02
 2  3  3     5.2994478375e-03
 3  1  1     1.2543896356e-02
 3  1  2    -2.3537745138e-02
 3  1  3     5.2994478375e-03
 3  2  1    -2.3537745138e-02
 3  2  2     1.2543896356e-02
 3  2  3     5.2994478375e-03
 3  3  1     2.7920560861e-02
 3  3  2     2.7920560861e-02
 3  3  3     2.5711032617e-03

   20
0.0000000000e+00 0.0000000000e+00 0.0000000000e+00
-5.3993700430e+00 -2.6996850215e+00 -2.6996850215e+00
     1      1      2
 1  1  1     2.5711032617e-03
 1  1  2     2.7920560861e-02
 1  1  3     2.7920560861e-02
 1  2  1     5.2994478375e-03
 1  2  2     1.2543896356e-02
 1  2  3    -2.3537745138e-02
 1  3  1     5.2994478375e-03
 1  3  2    -2.3537745138e-02
 1  3  3     1.2543896356e-02
 2  1  1     5.2994478375e-03
 2  1  2     1.2543896356e-02
 2  1  3    -2.3537745138e-02
 2  2  1    -2.8252543194e-02
 2  2  2    -1.5426619570e-02
 2  2  3    -5.1887236789e-02
 2  3  1     4.0787289666e-02
 2  3  2     6.6942469106e-02
 2  3  3     6.6942469106e-02
 3  1  1     5.2994478375e-03
 3  1  2    -2.3537745138e-02
 3  1  3     1.2543896356e-02
 3  2  1     4.0787289666e-02
 3  2  2     6.6942469106e-02
 3  2  3     6.6942469106e-02
 3  3  1    -2.8252543194e-02
 3  3  2    -5.1887236789e-02
 3  3  3    -1.5426619570e-02

   21
0.0000000000e+00 0.0000000000e+00 0.0000000000e+00
-2.6996850215e+00 0.0000000000e+00 -2.6996850215e+00
     1      1      1
 1  1  1     1.3048349053e-01
 1  1  2    -9.7173687897e-02
 1  1  3     1.7791369230e-01
 1  2  1    -8.1967628652e-02
 1  2  2    -7.0604855142e-02
 1  2  3     6.8236721104e-02
 1  3  1     1.7875484678e-01
 1  3  2    -3.8489926550e-02
 1  3  3     1.7875484678e-01
 2  1  1    -8.1967628652e-02
 2  1  2    -7.0604855142e-02
 2  1  3     6.8236721104e-02
 2  2  1    -1.1220483390e-01
 2  2  2     1.3280092307e-02
 2  2  3    -1.1220483390e-01
 2  3  1     6.8236721104e-02
 2  3  2    -7.0604855142e-02
 2  3  3    -8.1967628652e-02
 3  1  1     1.7875484678e-01
 3  1  2    -3.8489926550e-02
 3  1  3     1.7875484678e-01
 3  2  1     6.8236721104e-02
 3  2  2    -7.0604855142e-02
 3  2  3    -8.1967628652e-02
 3  3  1     1.7791369230e-01
 3  3  2    -9.7173687897e-02
 3  3  3     1.3048349053e-01

   22
0.0000000000e+00 0.0000000000e+00 0.0000000000e+00
-2.6996850215e+00 0.0000000000e+00 -2.6996850215e+00
     1      1      2
 1  1  1     3.0962511029e+00
 1  1  2    -6.2045971438e+00
 1  1  3     6.2045971438e+00
 1  2  1    -6.1837902268e+00
 1  2  2     6.1837902268e+00
 1  2  3    -8.4556252578e+00
 1  3  1     6.1837902268e+00
 1  3  2    -8.4556252578e+00
 1  3  3     6.1837902268e+00
 2  1  1    -6.1837902268e+00
 2  1  2     6.1837902268e+00
 2  1  3    -8.4556252578e+00
 2  2  1     6.2045971438e+00
 2  2  2    -3.0962511029e+00
 2  2  3     6.2045971438e+00
 2  3  1    -8.4556252578e+00
 2  3  2     6.1837902268e+00
 2  3  3    -6.1837902268e+00
 3  1  1     6.1837902268e+00
 3  1  2    -8.4556252578e+00
 3  1  3     6.1837902268e+00
 3  2  1    -8.4556252578e+00
 3  2  2     6.1837902268e+00
 3  2  3    -6.1837902268e+00
 3  3  1     6.2045971438e+00
 3  3  2    -6.2045971438e+00
 3  3  3     3.0962511029e+00

   23
0.0000000000e+00 0.0000000000e+00 0.0000000000e+00
-5.3993700430e+00 0.0000000000e+00 0.0000000000e+00
     1      1      1
 1  1  1     1.7354947016e-02
 1  1  2     0.0000000000e+00
 1  1  3     0.0000000000e+00
 1  2  1     0.0000000000e+00
 1  2  2     0.0000000000e+00
 1  2  3    -1.1102674368e-02
 1  3  1     0.0000000000e+00
 1  3  2    -1.1102674368e-02
 1  3  3     0.0000000000e+00
 2  1  1     0.0000000000e+00
 2  1  2     0.0000000000e+00
 2  1  3    -1.1102674368e-02
 2  2  1     5.2516554597e-03
 2  2  2     0.0000000000e+00
 2  2  3     0.0000000000e+00
 2  3  1    -9.8457313774e-03
 2  3  2     0.0000000000e+00
 2  3  3     0.0000000000e+00
 3  1  1     0.0000000000e+00
 3  1  2    -1.1102674368e-02
 3  1  3     0.0000000000e+00
 3  2  1    -9.8457313774e-03
 3  2  2     0.0000000000e+00
 3  2  3     0.0000000000e+00
 3  3  1     5.2516554597e-03
 3  3  2     0.0000000000e+00
 3  3  3     0.0000000000e+00

   24
0.0000000000e+00 0.0000000000e+00 0.0000000000e+00
-5.3993700430e+00 0.0000000000e+00 0.0000000000e+00
     1      1      2
 1  1  1     2.5711032617e-03
 1  1  2    -2.7920560861e-02
 1  1  3    -2.7920560861e-02
 1  2  1    -5.2994478375e-03
 1  2  2     1.2543896356e-02
 1  2  3    -2.3537745138e-02
 1  3  1    -5.2994478375e-03
 1  3  2    -2.3537745138e-02
 1  3  3     1.2543896356e-02
 2  1  1    -5.2994478375e-03
 2  1  2     1.2543896356e-02
 2  1  3    -2.3537745138e-02
 2  2  1    -2.8252543194e-02
 2  2  2     1.5426619570e-02
 2  2  3     5.1887236789e-02
 2  3  1     4.0787289666e-02
 2  3  2    -6.6942469106e-02
 2  3  3    -6.6942469106e-02
 3  1  1    -5.2994478375e-03
 3  1  2    -2.3537745138e-02
 3  1  3     1.2543896356e-02
 3  2  1     4.0787289666e-02
 3  2  2    -6.6942469106e-02
 3  2  3    -6.6942469106e-02
 3  3  1    -2.8252543194e-02
 3  3  2     5.1887236789e-02
 3  3  3     1.5426619570e-02

   25
0.0000000000e+00 0.0000000000e+00 0.0000000000e+00
0.0000000000e+00 0.0000000000e+00 -5.3993700430e+00
     1      1      1
 1  1  1     0.0000000000e+00
 1  1  2     0.0000000000e+00
 1  1  3     5.2516554597e-03
 1  2  1     0.0000000000e+00
 1  2  2     0.0000000000e+00
 1  2  3    -9.8457313774e-03
 1  3  1     0.0000000000e+00
 1  3  2    -1.1102674368e-02
 1  3  3     0.0000000000e+00
 2  1  1     0.0000000000e+00
 2  1  2     0.0000000000e+00
 2  1  3    -9.8457313774e-03
 2  2  1     0.0000000000e+00
 2  2  2     0.0000000000e+00
 2  2  3     5.2516554597e-03
 2  3  1    -1.1102674368e-02
 2  3  2     0.0000000000e+00
 2  3  3     0.0000000000e+00
 3  1  1     0.0000000000e+00
 3  1  2    -1.1102674368e-02
 3  1  3     0.0000000000e+00
 3  2  1    -1.1102674368e-02
 3  2  2     0.0000000000e+00
 3  2  3     0.0000000000e+00
 3  3  1     0.0000000000e+00
 3  3  2     0.0000000000e+00
 3  3  3     1.7354947016e-02

   26
0.0000000000e+00 0.0000000000e+00 0.0000000000e+00
0.0000000000e+00 0.0000000000e+00 -5.3993700430e+00
     1      1      2
 1  1  1     1.5426619570e-02
 1  1  2     5.1887236789e-02
 1  1  3    -2.8252543194e-02
 1  2  1    -6.6942469106e-02
 1  2  2    -6.6942469106e-02
 1  2  3     4.0787289666e-02
 1  3  1     1.2543896356e-02
 1  3  2    -2.3537745138e-02
 1  3  3    -5.2994478375e-03
 2  1  1    -6.6942469106e-02
 2  1  2    -6.6942469106e-02
 2  1  3     4.0787289666e-02
 2  2  1     5.1887236789e-02
 2  2  2     1.5426619570e-02
 2  2  3    -2.8252543194e-02
 2  3  1    -2.3537745138e-02
 2  3  2     1.2543896356e-02
 2  3  3    -5.2994478375e-03
 3  1  1     1.2543896356e-02
 3  1  2    -2.3537745138e-02
 3  1  3    -5.2994478375e-03
 3  2  1    -2.3537745138e-02
 3  2  2     1.2543896356e-02
 3  2  3    -5.2994478375e-03
 3  3  1    -2.7920560861e-02
 3  3  2    -2.7920560861e-02
 3  3  3     2.5711032617e-03

   27
0.0000000000e+00 0.0000000000e+00 0.0000000000e+00
2.6996850215e+00 -2.6996850215e+00 0.0000000000e+00
     1      1      1
 1  1  1    -1.3048349053e-01
 1  1  2     1.7791369230e-01
 1  1  3     9.7173687897e-02
 1  2  1     1.7875484678e-01
 1  2  2    -1.7875484678e-01
 1  2  3    -3.8489926550e-02
 1  3  1     8.1967628652e-02
 1  3  2     6.8236721104e-02
 1  3  3     7.0604855142e-02
 2  1  1     1.7875484678e-01
 2  1  2    -1.7875484678e-01
 2  1  3    -3.8489926550e-02
 2  2  1    -1.7791369230e-01
 2  2  2     1.3048349053e-01
 2  2  3     9.7173687897e-02
 2  3  1     6.8236721104e-02
 2  3  2     8.1967628652e-02
 2  3  3    -7.0604855142e-02
 3  1  1     8.1967628652e-02
 3  1  2     6.8236721104e-02
 3  1  3     7.0604855142e-02
 3  2  1     6.8236721104e-02
 3  2  2     8.1967628652e-02
 3  2  3    -7.0604855142e-02
 3  3  1     1.1220483390e-01
 3  3  2    -1.1220483390e-01
 3  3  3    -1.3280092307e-02

   28
0.0000000000e+00 0.0000000000e+00 0.0000000000e+00
2.6996850215e+00 -2.6996850215e+00 0.0000000000e+00
     1      1      2
 1  1  1    -2.5711032617e-03
 1  1  2     2.7920560861e-02
 1  1  3    -2.7920560861e-02
 1  2  1     5.2994478375e-03
 1  2  2    -1.2543896356e-02
 1  2  3    -2.3537745138e-02
 1  3  1    -5.2994478375e-03
 1  3  2    -2.3537745138e-02
 1  3  3    -1.2543896356e-02
 2  1  1     5.2994478375e-03
 2  1  2    -1.2543896356e-02
 2  1  3    -2.3537745138e-02
 2  2  1     2.8252543194e-02
 2  2  2    -1.5426619570e-02
 2  2  3     5.1887236789e-02
 2  3  1     4.0787289666e-02
 2  3  2    -6.6942469106e-02
 2  3  3     6.6942469106e-02
 3  1  1    -5.2994478375e-03
 3  1  2    -2.3537745138e-02
 3  1  3    -1.2543896356e-02
 3  2  1     4.0787289666e-02
 3  2  2    -6.6942469106e-02
 3  2  3     6.6942469106e-02
 3  3  1     2.8252543194e-02
 3  3  2    -5.1887236789e-02
 3  3  3     1.5426619570e-02

   29
0.0000000000e+00 0.0000000000e+00 0.0000000000e+00
0.0000000000e+00 -2.6996850215e+00 2.6996850215e+00
     1      1      1
 1  1  1    -1.3280092307e-02
 1  1  2    -1.1220483390e-01
 1  1  3     1.1220483390e-01
 1  2  1    -7.0604855142e-02
 1  2  2     8.1967628652e-02
 1  2  3     6.8236721104e-02
 1  3  1     7.0604855142e-02
 1  3  2     6.8236721104e-02
 1  3  3     8.1967628652e-02
 2  1  1    -7.0604855142e-02
 2  1  2     8.1967628652e-02
 2  1  3     6.8236721104e-02
 2  2  1     9.7173687897e-02
 2  2  2     1.3048349053e-01
 2  2  3    -1.7791369230e-01
 2  3  1    -3.8489926550e-02
 2  3  2    -1.7875484678e-01
 2  3  3     1.7875484678e-01
 3  1  1     7.0604855142e-02
 3  1  2     6.8236721104e-02
 3  1  3     8.1967628652e-02
 3  2  1    -3.8489926550e-02
 3  2  2    -1.7875484678e-01
 3  2  3     1.7875484678e-01
 3  3  1     9.7173687897e-02
 3  3  2     1.7791369230e-01
 3  3  3    -1.3048349053e-01

   30
0.0000000000e+00 0.0000000000e+00 0.0000000000e+00
0.0000000000e+00 -2.6996850215e+00 2.6996850215e+00
     1      1      2
 1  1  1     1.5426619570e-02
 1  1  2    -5.1887236789e-02
 1  1  3     2.8252543194e-02
 1  2  1     6.6942469106e-02
 1  2  2    -6.6942469106e-02
 1  2  3     4.0787289666e-02
 1  3  1    -1.2543896356e-02
 1  3  2    -2.3537745138e-02
 1  3  3    -5.2994478375e-03
 2  1  1     6.6942469106e-02
 2  1  2    -6.6942469106e-02
 2  1  3     4.0787289666e-02
 2  2  1     5.1887236789e-02
 2  2  2    -1.5426619570e-02
 2  2  3     2.8252543194e-02
 2  3  1    -2.3537745138e-02
 2  3  2    -1.2543896356e-02
 2  3  3     5.2994478375e-03
 3  1  1    -1.2543896356e-02
 3  1  2    -2.3537745138e-02
 3  1  3    -5.2994478375e-03
 3  2  1    -2.3537745138e-02
 3  2  2    -1.2543896356e-02
 3  2  3     5.2994478375e-03
 3  3  1    -2.7920560861e-02
 3  3  2     2.7920560861e-02
 3  3  3    -2.5711032617e-03

   31
0.0000000000e+00 0.0000000000e+00 0.0000000000e+00
2.6996850215e+00 0.0000000000e+00 2.6996850215e+00
     1      1      1
 1  1  1    -1.3048349053e-01
 1  1  2    -9.7173687897e-02
 1  1  3    -1.7791369230e-01
 1  2  1    -8.1967628652e-02
 1  2  2     7.0604855142e-02
 1  2  3     6.8236721104e-02
 1  3  1    -1.7875484678e-01
 1  3  2    -3.8489926550e-02
 1  3  3    -1.7875484678e-01
 2  1  1    -8.1967628652e-02
 2  1  2     7.0604855142e-02
 2  1  3     6.8236721104e-02
 2  2  1     1.1220483390e-01
 2  2  2     1.3280092307e-02
 2  2  3     1.1220483390e-01
 2  3  1     6.8236721104e-02
 2  3  2     7.0604855142e-02
 2  3  3    -8.1967628652e-02
 3  1  1    -1.7875484678e-01
 3  1  2    -3.8489926550e-02
 3  1  3    -1.7875484678e-01
 3  2  1     6.8236721104e-02
 3  2  2     7.0604855142e-02
 3  2  3    -8.1967628652e-02
 3  3  1    -1.7791369230e-01
 3  3  2    -9.7173687897e-02
 3  3  3    -1.3048349053e-01

   32
0.0000000000e+00 0.0000000000e+00 0.0000000000e+00
0.0000000000e+00 0.0000000000e+00 5.3993700430e+00
     1      1      1
 1  1  1     0.0000000000e+00
 1  1  2     0.0000000000e+00
 1  1  3    -5.2516554597e-03
 1  2  1     0.0000000000e+00
 1  2  2     0.0000000000e+00
 1  2  3    -9.8457313774e-03
 1  3  1     0.0000000000e+00
 1  3  2    -1.1102674368e-02
 1  3  3     0.0000000000e+00
 2  1  1     0.0000000000e+00
 2  1  2     0.0000000000e+00
 2  1  3    -9.8457313774e-03
 2  2  1     0.0000000000e+00
 2  2  2     0.0000000000e+00
 2  2  3    -5.2516554597e-03
 2  3  1    -1.1102674368e-02
 2  3  2     0.0000000000e+00
 2  3  3     0.0000000000e+00
 3  1  1     0.0000000000e+00
 3  1  2    -1.1102674368e-02
 3  1  3     0.0000000000e+00
 3  2  1    -1.1102674368e-02