54
Lattice="0.0 8.1465 8.1465 8.1465 0.0 8.1465 8.1465 8.1465 0.0" Properties=species:S:1:pos:R:3:forces:R:3:displacements:R:3 energy=-32779.55990569391 stress="-0.003642331259496225 -0.005504354903120713 0.001713282109962177 -0.005504354903120713 -0.0033898379153163754 -0.000646382961100414 0.001713282109962177 -0.000646382961100414 -0.0038213719944601176" pbc="T T T"
Si       0.03244212      -0.02710520       0.01810803      -0.70841965       0.08061411      -0.09404530       0.03244212      -0.02710520       0.01810803
Si       1.38520805       1.31553260       1.37265544      -0.68109963       0.59042350      -0.11073304       0.02745805      -0.04221740       0.01490544
Si      -0.01930709       2.72199261       2.74591587      -0.32527103      -0.05653059      -0.34077350      -0.01930709       0.00649261       0.03041587
Si       1.38419901       4.06315529       4.08075037      -0.87952657       0.57694989       0.05739551       0.02644901      -0.01009471       0.00750037
Si       0.08045258       5.52857077       5.48214452      -0.83284819      -1.73037917      -1.06728395       0.08045258       0.09757077       0.05114452
Si       1.37114702       6.77784630       6.75634539       0.45179142       1.34438613       0.70599459       0.01339702      -0.01090370      -0.03240461
Si       2.64654586      -0.04614911       2.69198270       1.17290795       0.24321505      -0.01029341      -0.06895414      -0.04614911      -0.02351730
Si       4.07219771       1.38103623       4.02046189      -1.22629511      -1.21116597       1.31296623      -0.00105229       0.02328623      -0.05278811
Si       2.64275996       2.75752041       5.43461689       0.91726214      -0.93818886       0.02128282      -0.07274004       0.04202041       0.00361689
Si       4.07125442       4.11364722       6.70415969      -0.92317130      -0.83787984       1.36498607      -0.00199558       0.04039722      -0.08459031
Si       2.66868806       5.48067046       8.10663959       0.65830731      -0.83671487       0.01056826      -0.04681194       0.04967046      -0.03986041
Si       4.04858310       6.79738525       9.43103652       0.26398005       0.21290328       0.59486405      -0.02466690       0.00863525      -0.07321348
Si       5.47489513       0.01662888       5.43994845      -0.49965148       0.41649634       0.01897988       0.04389513       0.01662888       0.00894845
Si       6.79158400       1.40872358       6.83700672       0.56002175      -0.54889093      -0.45558945       0.00283400       0.05097358       0.04825672
Si       5.40950170       2.72663955       8.12266845      -0.35406482       0.39932806       0.42455392      -0.02149830       0.01113955      -0.02383155
Si       6.69516345       4.14976096       9.56373595       1.13320446      -1.46631145      -0.74295111      -0.09358655       0.07651096       0.05948595
Si       5.45517239       5.45009835      10.86219115      -1.17363326       0.56172048       0.52989973       0.02417239       0.01909835       0.00019115
Si       6.80351887       6.75101878      12.26342929       0.05723867       0.30174184      -0.14609625       0.01476887      -0.03773122       0.04367929
Si       2.73363945       2.65715259      -0.00838910       0.25749984       0.48203428       0.08763271       0.01813945      -0.05834741      -0.00838910
Si       4.10357968       4.08513377       1.36342345      -0.53874690      -0.72618135       0.41396458       0.03032968       0.01188377       0.00567345
Si       2.69158529       5.43775551       2.76024629       0.16904232       0.06300617      -1.17101228      -0.02391471       0.00675551       0.04474629
Si       4.04868132       6.81605272       4.02993833      -0.10764669      -1.18521222       1.25582037      -0.02456868       0.02730272      -0.04331167
Si       2.74802738       8.14589040       5.41625063      -0.36677044      -0.08636541      -0.14953536       0.03252738      -0.00060960      -0.01474937
Si       4.11509784       9.41837926       6.76948473      -0.46916436       1.14293686       0.11709112       0.04184784      -0.08587074      -0.01926527
Si       5.37707773       2.61525188       2.76052321       1.34981116       1.65969466      -1.11699803      -0.05392227      -0.10024812       0.04502321
Si       6.78394366       4.09123334       4.11972927      -0.09031977      -1.01032913      -0.69685895      -0.00480634       0.01798334       0.04647927
Si       5.43023499       5.36405785       5.48460767       0.13742983       1.43344786      -1.26483260      -0.00076501      -0.06694215       0.05360767
Si       6.74889730       6.76669740       6.77244326       0.97439719       0.38540116       0.12341912      -0.03985270      -0.02205260      -0.01630674
Si       5.45763326       8.18832974       8.12007163      -0.00492006      -0.95058363       0.08125894       0.02663326       0.04182974      -0.02642837
Si       6.80282394       9.48785686       9.45621874      -0.04728336      -0.27398704       1.29247453       0.01407394      -0.01639314      -0.04803126
Si       8.14464992       2.64875100       5.34579337       0.12000933       1.21129272       1.46163718      -0.00185008      -0.06674900      -0.08520663
Si       9.58653908       4.16790862       6.83186528      -0.62347992      -1.38919018      -0.46054783       0.08228908       0.09465862       0.04311528
Si       8.11769065       5.40529686       8.19910838      -0.16472492       0.44547962      -0.62042365      -0.02880935      -0.02570314       0.05260838
Si       9.46722267       6.82421736       9.45162948       0.41315622      -1.31143565       0.57914896      -0.03702733       0.03546736      -0.05262052
Si       8.18658820       8.01947635      10.86161319      -0.86728580       1.28938998       0.00209493       0.04008820      -0.12702365      -0.00038681
Si       9.47068310       9.46424488      12.21799116       0.26408186      -0.47947732      -0.14274173      -0.03356690      -0.04000512      -0.00175884
Si       5.40963490       5.41792584       0.00323928      -0.28723722      -0.29264476      -1.17989492      -0.02136510      -0.01307416       0.00323928
Si       6.67704751       6.73687739       1.29823852       1.21377461       0.67585972       1.02274061      -0.11170249      -0.05187261      -0.05951148
Si       5.37979023       8.09834205       2.79460235       0.59033480       0.56211206      -1.57769832      -0.05120977      -0.04815795       0.07910235
Si       6.70655013       9.51001102       4.08850067       0.70243413       0.25756000       0.07821244      -0.08219987       0.00576102       0.01525067
Si       5.41931795      10.88397556       5.48309729       0.34703439      -0.41085971      -0.19491790      -0.01168205       0.02197556       0.05209729
Si       6.86199952      12.21214421       6.75459776      -0.28834639       0.50225755       0.66874110       0.07324952      -0.00760579      -0.03415224
Si       8.12395584       5.37288634       2.66396479      -0.65664124       0.71797516       0.16073740      -0.02254416      -0.05811366      -0.05153521
Si       9.48440114       6.77569095       3.99873850       0.02297615      -0.50496029       0.81584754      -0.01984886      -0.01305905      -0.07451150
Si       8.20735879       8.23301774       5.39072694      -1.32623440      -1.53718853      -0.44431902       0.06085879       0.08651774      -0.04027306
Si       9.46609573       9.43918110       6.78386542       0.47797836       1.40640217       0.53150436      -0.03815427      -0.06506890      -0.00488458
Si       8.14330223      10.84965731       8.18713063       0.29083753       0.03561852      -0.66315487      -0.00319777      -0.01234269       0.04063063
Si       9.49573588      12.24105942       9.49627593       0.30647215      -0.36414226       0.07382820      -0.00851412       0.02130942      -0.00797407
Si      10.96432679       5.42990831       5.44548287      -0.98748591       0.44398684      -0.60110875       0.10232679      -0.00109169       0.01448287
Si      12.17615551       6.83583145       6.76943775       0.77834183      -0.04980047       0.41013981      -0.04359449       0.04708145      -0.01931225
Si      10.79400038       8.13841702       8.15183970       0.61387659       0.09115255      -0.44145224      -0.06799962      -0.00808298       0.00533970
Si      12.21132561       9.44274708       9.47157007      -0.36646319       0.77521383       0.87293143      -0.00842439      -0.06150292      -0.03267993
Si      10.78482968      10.88914299      10.96294627       0.91027542      -0.25838250      -1.06089553      -0.07717032       0.02714299       0.10094627
Si      12.27387627      12.20542448      12.25552912      -0.35774664       0.14820224      -0.33655972       0.05412627      -0.01432552       0.03577912
