54
Lattice="0.0 8.1465 8.1465 8.1465 0.0 8.1465 8.1465 8.1465 0.0" Properties=species:S:1:pos:R:3:forces:R:3:displacements:R:3 energy=-32779.06424571086 stress="-0.004061929289642375 -0.004566915978002073 0.0001955675720374832 -0.004566915978002073 -0.0038103541030777245 0.0019345580952252446 0.0001955675720374832 0.0019345580952252446 -0.003955423006279238" pbc="T T T"
Si      -0.02673240       0.03270651      -0.01155228       0.62955261      -1.30836549       0.03951683      -0.02673240       0.03270651      -0.01155228
Si       1.34937368       1.34572251       1.29450318       0.00614596      -0.45156105       1.02323452      -0.00837632      -0.01202749      -0.06324682
Si       0.02186944       2.64675734       2.70235116      -0.06416445       0.68591016      -0.09848251       0.02186944      -0.06874266      -0.01314884
Si       1.39382196       4.05599087       4.06173861      -0.53104439       0.07144093       0.23431517       0.03607196      -0.01725913      -0.01151139
Si       0.00140431       5.50280225       5.41946284       0.03384420      -0.98159165      -0.13757793       0.00140431       0.07180225      -0.01153716
Si       1.45964411       6.78008102       6.75785518      -0.94076022       0.36121428       0.28743442       0.10189411      -0.00866898      -0.03089482
Si       2.69924579      -0.03481076       2.77882154       0.12327103       1.03351971      -0.42557439      -0.01625421      -0.03481076       0.06332154
Si       4.02102479       1.43172874       4.14662889       1.62947417      -2.19114219      -1.73991719      -0.05222521       0.07397874       0.07337889
Si       2.79618234       2.66006156       5.35682301      -2.31805005       1.57034265       2.35171350       0.08068234      -0.05543844      -0.07417699
Si       4.01295262       3.98713937       6.85496770       1.21332415       0.78666424      -0.86625556      -0.06029738      -0.08611063       0.06621770
Si       2.73950449       5.38980117       8.15869816      -0.07342042       0.44677725       0.13043052       0.02400449      -0.04119883       0.01219816
Si       4.07989586       6.86580540       9.54364717      -0.06640594      -0.67117954      -0.48464960       0.00664586       0.07705540       0.03939717
Si       5.48462746       0.06692317       5.39446118      -1.02611262      -0.46571394       0.47893995       0.05362746       0.06692317      -0.03653882
Si       6.78977136       1.34205057       6.85226923      -0.53973446       0.24509118      -0.16176353       0.00102136      -0.01569943       0.06351923
Si       5.47858291       2.75852091       8.24183670      -0.83370874      -0.92507058      -1.47038073       0.04758291       0.04302091       0.09533670
Si       6.79090637       4.02923736       9.47650147       0.86624888       1.05138579       1.05652568       0.00215637      -0.04401264      -0.02774853
Si       5.37031987       5.42131894      10.85212898       0.56563961       0.02090641      -0.59780077      -0.06068013      -0.00968106      -0.00987102
Si       6.69060521       6.77719702      12.18057848       0.98483947       0.42008637       0.27693069      -0.09814479      -0.01155298      -0.03917152
Si       2.67565111       2.73174034       0.04695492       0.75790362      -0.16368337      -0.54102053      -0.03984889       0.01624034       0.04695492
Si       4.10824398       4.02123023       1.37769421      -0.31589910       0.74312312       0.28986488       0.03499398      -0.05201977       0.01994421
Si       2.68647121       5.45196589       2.76125755       0.53470513      -0.17850038      -0.82249230      -0.02902879       0.02096589       0.04575755
Si       4.06881057       6.83896503       4.07658818      -0.51967240      -0.79222502       0.01143035      -0.00443943       0.05021503       0.00333818
Si       2.72078490       8.16541706       5.36184836      -0.42549186       0.49394903       0.00274105       0.00528490       0.01891706      -0.06915164
Si       4.01181313       9.50143557       6.74686628       0.41340999       0.40355212       0.61118979      -0.06143687      -0.00281443      -0.04188372
Si       5.41058555       2.68513153       2.79541625       0.36814958      -0.09639734      -1.00428524      -0.02041445      -0.03036847       0.07991625
Si       6.74023204       4.03650135       4.10380100       0.32348206       0.79503343      -0.18146615      -0.04851796      -0.03674865       0.03055100
Si       5.41552596       5.49519121       5.38528935      -0.28223025      -0.83301120       0.91181345      -0.01547404       0.06419121      -0.04571065
Si       6.80323336       6.82997276       6.73825621      -0.54423698      -0.72983746       0.63946035       0.01448336       0.04122276      -0.05049379
Si       5.43696682       8.20924641       8.13830714       0.01657385      -0.31572401      -0.30049074       0.00596682       0.06274641      -0.00819286
Si       6.87625161       9.50276705       9.45922325      -1.99215475      -0.75752978       1.84008840       0.08750161      -0.00148295      -0.04502675
Si       8.04403085       2.64097832       5.45675432       1.19893549       0.89728389      -0.09806702      -0.10246915      -0.07452168       0.02575432
Si       9.53230261       4.06075388       6.80190863      -0.69571480      -0.94971280      -0.46168580       0.02805261      -0.01249612       0.01315863
Si       8.15856827       5.36355803       8.05733447      -0.47065457       0.91859191       0.67489581       0.01206827      -0.06744197      -0.08916553
Si       9.47465690       6.77432670       9.48340240      -0.32026047      -0.13650707       0.52588778      -0.02959310      -0.01442330      -0.02084760
Si       8.13783297       8.19535402      10.90715130       0.12346077      -0.79504835      -0.72485492      -0.00866703       0.04885402       0.04515130
Si       9.50498792       9.61446465      12.13759066      -0.23086732      -0.66617411       0.90444570       0.00073792       0.11021465      -0.08215934
Si       5.43738767       5.42975795      -0.01841921      -0.45676290      -0.65825435      -0.78312100       0.00638767      -0.00124205      -0.01841921
Si       6.75764076       6.72502342       1.33611524       0.03070566       1.04233885       0.11628097      -0.03110924      -0.06372658      -0.02163476
Si       5.37742368       8.08299808       2.75010354       0.56103965       1.14504311      -1.26146806      -0.05357632      -0.06350192       0.03460354
Si       6.75512439       9.53492501       4.04517910       0.35855602      -1.03772089       0.46360384      -0.03362561       0.03067501      -0.02807090
Si       5.49785835      10.86451563       5.49794056      -1.31551779      -0.78565045      -1.35926614       0.06685835       0.00251563       0.06694056
Si       6.80586078      12.12085856       6.74824537       0.44820884       2.13817001       0.99152434       0.01711078      -0.09889144      -0.04050463
Si       8.11395655       5.48481647       2.69060611       0.79792310      -1.13144146       0.46351668      -0.03254345       0.05381647      -0.02489389
Si       9.55211707       6.79189678       4.12034007      -0.86130388      -0.78911373      -0.35679044       0.04786707       0.00314678       0.04709007
Si       8.16212659       8.08915516       5.44865946       0.19440008       1.34845259      -0.41221211       0.01562659      -0.05734484       0.01765946
Si       9.49965953       9.51157649       6.82616559      -0.52653930       0.18360685      -0.27422255      -0.00459047       0.00732649       0.03741559
Si       8.02085547      10.87739948       8.25469285       2.06366690       0.33678675      -1.92625326      -0.12564453       0.01539948       0.10819285
Si       9.53186817      12.13685936       9.45225905      -0.99442866       1.69529724       0.46409543       0.02761817      -0.08289064      -0.05199095
Si      10.82154570       5.30552986       5.38673108       0.86346026       0.80160235      -0.10871833      -0.04045430      -0.12547014      -0.04426892
Si      12.18464683       6.78214854       6.69047881       0.07668289       0.02515902       0.58556412      -0.03510317      -0.00660146      -0.09827119
Si      10.79424545       8.15637771       8.17666175       0.61691872      -0.40905480      -0.91461390      -0.06775455       0.00987771       0.03016175
Si      12.20650558       9.52176763       9.40077723       0.03778159      -0.47412222       1.44726960      -0.01324442       0.01751763      -0.10347277
Si      10.86543405      10.92687036      10.80274156       0.66586121      -0.91065723      -0.10979767       0.00343405       0.06487036      -0.05925844
Si      12.26002987      12.17703429      12.16616886      -0.15902967      -0.05633878       0.80051451       0.04027987      -0.04271571      -0.05358114
