ITEM: TIMESTEP
1 
ITEM: NUMBER OF ATOMS
54 
ITEM: BOX BOUNDS xy xz yz xx yy zz pp pp pp
0.0000000000000000e+00 1.5127559633992522e+01 3.7818799084981310e+00
0.0000000000000000e+00 8.7339006268676993e+00 3.7818799084981310e+00
0.0000000000000000e+00 6.1758003594675879e+00 2.1834651567169248e+00 
ITEM: ATOMS  id type x y z
 1 1 0.00000 0.00000 0.00000
 2 1 1.2605 0.72783 0.51465
 3 1 1.2605 0.72783 2.05860
 4 1 2.52126 1.45565 2.57325
 5 1 2.52126 1.45565 4.11720
 6 1 3.78189 2.18348 4.63185
 7 1 1.26063 2.18348 -0.00000
 8 1 2.52126 2.91130 0.51465
 9 1 2.52126 2.91130 2.05860
 10 1 3.78189 3.63913 2.57325
 11 1 3.78189 3.63913 4.11720
 12 1 5.04252 4.36695 4.63185
 13 1 2.52126 4.36695 -0.00000
 14 1 3.78189 5.09478 0.51465
 15 1 3.78189 5.09478 2.05860
 16 1 5.04252 5.82260 2.57325
 17 1 5.04252 5.82260 4.11720
 18 1 6.30315 6.55043 4.63185
 19 1 2.52126 -0.00000 -0.00000
 20 1 3.78189 0.72783 0.51465
 21 1 3.78189 0.72783 2.05860
 22 1 5.04252 1.45565 2.57325
 23 1 5.04252 1.45565 4.11720
 24 1 6.30315 2.18348 4.63185
 25 1 3.78189 2.18348 -0.00000
 26 1 5.04252 2.91130 0.51465
 27 1 5.04252 2.91130 2.05860
 28 1 6.30315 3.63913 2.57325
 29 1 6.30315 3.63913 4.11720
 30 1 7.56378 4.36695 4.63185
 31 1 5.04252 4.36695 -0.00000
 32 1 6.30315 5.09478 0.51465
 33 1 6.30315 5.09478 2.05860
 34 1 7.56378 5.82260 2.57325
 35 1 7.56378 5.82260 4.11720
 36 1 8.82441 6.55043 4.63185
 37 1 5.04252 -0.00000 -0.00000
 38 1 6.30315 0.72783 0.51465
 39 1 6.30315 0.72783 2.05860
 40 1 7.56378 1.45565 2.57325
 41 1 7.56378 1.45565 4.11720
 42 1 8.82441 2.18348 4.63185
 43 1 6.30315 2.18348 -0.00000
 44 1 7.56378 2.91130 0.51465
 45 1 7.56378 2.91130 2.05860
 46 1 8.82441 3.63913 2.57325
 47 1 8.82441 3.63913 4.11720
 48 1 10.08504 4.36695 4.63185
 49 1 7.56378 4.36695 -0.00000
 50 1 8.82441 5.09478 0.51465
 51 1 8.82441 5.09478 2.05860
 52 1 10.08504 5.82260 2.57325
 53 1 10.08504 5.82260 4.11720
 54 1 11.34567 6.55043 4.63185
 
