ITEM: TIMESTEP
1
ITEM: NUMBER OF ATOMS
54
ITEM: BOX BOUNDS xy xz yz pp pp pp
0.0000000000000000e+00 1.5127559633992522e+01 3.7818799084981309e+00
0.0000000000000000e+00 8.7339006268676993e+00 3.7818799084981309e+00
0.0000000000000000e+00 6.1758003594675879e+00 2.1834651567169248e+00
ITEM: ATOMS id type x y z fx fy fz
1 1 0 0 0 -0.00234698 -0.000206219 -0.000663954
2 1 1.2605 0.72783 0.51465 0.00647643 -0.000154517 2.77957e-05
3 1 8.8243 0.72783 2.0586 0.00625236 -0.000372738 0.000126032
4 1 2.52126 1.45565 2.57325 -0.00223301 -0.000335232 -0.000679814
5 1 2.52126 1.45565 4.1172 -0.000303812 7.90481e-05 0.000163533
6 1 3.78189 2.18348 4.63185 -0.00018905 -0.000334869 5.65032e-05
7 1 1.26063 2.18348 0 -0.00164055 -8.88829e-06 2.22148e-05
8 1 2.52126 2.9113 0.51465 -7.99371e-05 -0.000229709 0.000145011
9 1 2.52126 2.9113 2.0586 -0.000410601 0.000312325 6.72508e-05
10 1 3.78189 3.63913 2.57325 -6.01253e-05 -0.00013123 -1.29823e-05
11 1 3.78189 3.63913 4.1172 -0.00039076 -6.48301e-05 7.74646e-05
12 1 5.04252 4.36695 4.63185 -0.000154832 0.00014167 7.13581e-05
13 1 2.52126 4.36695 0 -0.000281648 0.000446404 9.61511e-05
14 1 3.78189 5.09478 0.51465 -0.000189042 8.09409e-05 -5.03956e-05
15 1 3.78189 5.09478 2.0586 -0.000412937 -0.00042946 0.000139204
16 1 5.04252 5.8226 2.57325 -0.0015304 0.000505071 -3.2724e-05
17 1 5.04252 5.8226 4.1172 -0.000378672 0.00028748 6.67927e-05
18 1 6.30315 6.55043 4.63185 -0.000278336 -0.000131756 -5.89159e-06
19 1 2.52126 0 0 -0.00195698 0.000633985 0.000791585
20 1 3.78189 0.72783 0.51465 -0.000345431 5.08883e-05 0.000172456
21 1 3.78189 0.72783 2.0586 -0.00024097 -0.000710939 -0.000112497
22 1 5.04252 1.45565 2.57325 2.32117e-06 0.000102887 6.04981e-05
23 1 5.04252 1.45565 4.1172 0.000106787 -3.99222e-07 3.35664e-05
24 1 6.30315 2.18348 4.63185 -0.000128949 -0.000324729 -8.38969e-05
25 1 3.78189 2.18348 0 0.000109107 -0.000109619 -4.86743e-05
26 1 5.04252 2.9113 0.51465 2.32094e-06 0.000165396 -6.35565e-06
27 1 5.04252 2.9113 2.0586 -3.04756e-14 0.000163311 3.56676e-05
28 1 6.30315 3.63913 2.57325 1.68199e-14 -0.000163311 -3.56676e-05
29 1 6.30315 3.63913 4.1172 -2.32094e-06 -0.000165396 6.35565e-06
30 1 7.56378 4.36695 4.63185 -0.000109107 0.000109619 4.86743e-05
31 1 5.04252 4.36695 0 0.000106785 0.000345844 2.50423e-05
32 1 6.30315 5.09478 0.51465 -0.000128943 -4.80537e-05 5.95274e-06
33 1 6.30315 5.09478 2.0586 -2.44537e-05 0.000324292 -0.000189179
34 1 7.56378 5.8226 2.57325 -0.000109104 0.000473156 -5.5641e-05
35 1 7.56378 5.8226 4.1172 -4.64131e-06 0.00018689 -4.32047e-06
36 1 8.82441 6.55043 4.63185 -0.000218213 -0.000163838 -2.85757e-05
37 1 5.04252 0 0 0.000278336 0.000131756 5.89159e-06
38 1 6.30315 0.72783 0.51465 4.29202e-05 -0.000525285 -0.000234965
39 1 6.30315 0.72783 2.0586 -0.000180926 -0.000267402 0.000201131
40 1 7.56378 1.45565 2.57325 -0.00178582 0.000472861 0.000752938
41 1 7.56378 1.45565 4.1172 0.000144771 -1.13792e-05 -4.79766e-05
42 1 8.82441 2.18348 4.63185 0.000281648 -0.000446404 -9.61511e-05
43 1 6.30315 2.18348 0 0.00016923 -0.000141701 -7.13596e-05
44 1 7.56378 2.9113 0.51465 0.000368583 0.000491971 -0.000206061
45 1 7.56378 2.9113 2.0586 3.79828e-05 8.2772e-05 5.24984e-05
46 1 8.82441 3.63913 2.57325 0.000388432 -0.000263873 -0.000106777
47 1 8.82441 3.63913 4.1172 5.78022e-05 -0.000197478 -1.63301e-05
48 1 10.085 4.36695 4.63185 0.000279333 9.05302e-06 -2.24339e-05
49 1 7.56378 4.36695 0 0.00016691 0.000313762 2.35667e-06
50 1 8.82441 5.09478 0.51465 0.000281646 -0.00010016 -0.000104677
51 1 8.82441 5.09478 2.0586 5.78025e-05 -0.000134969 -8.31833e-05
52 1 10.085 5.8226 2.57325 0.000279335 0.000372592 -0.000126752
53 1 10.085 5.8226 4.1172 5.54834e-05 0.000154808 -2.70062e-05
54 1 11.3457 6.55043 4.63185 0.000170221 -0.000264397 -9.9685e-05
ITEM: TIMESTEP
2
ITEM: NUMBER OF ATOMS
54
ITEM: BOX BOUNDS xy xz yz pp pp pp
0.0000000000000000e+00 1.5127559633992522e+01 3.7818799084981309e+00
0.0000000000000000e+00 8.7339006268676993e+00 3.7818799084981309e+00
0.0000000000000000e+00 6.1758003594675879e+00 2.1834651567169248e+00
ITEM: ATOMS id type x y z fx fy fz
1 1 -3.07967e-05 -2.70599e-06 -8.71232e-06 0.000903206 0.00010153 0.000410552
2 1 1.26058 0.727828 0.51465 0.000784747 -2.35693e-05 3.56493e-05
3 1 8.82438 0.727825 2.0586 0.000846717 3.46564e-05 -1.42203e-05
4 1 2.52123 1.45565 2.57324 0.000760251 0.00013329 0.000442042
5 1 2.52126 1.45565 4.1172 -0.000343327 -0.000213537 -0.000342465
6 1 3.78189 2.18348 4.63185 -0.000421481 -0.000115931 -0.000275875
7 1 1.26061 2.18348 2.91499e-07 0.000564977 1.37753e-05 4.06221e-05
8 1 2.52126 2.9113 0.514652 -0.000391121 0.000317239 -0.000116327
9 1 2.52125 2.9113 2.0586 -0.00029437 -0.000213653 -7.2831e-05
10 1 3.78189 3.63913 2.57325 -0.000195805 -0.000173409 9.96918e-05
11 1 3.78188 3.63913 4.1172 -7.27037e-05 -0.00012588 -5.45326e-05
12 1 5.04252 4.36695 4.63185 -0.000376173 2.17904e-06 -2.90272e-05
13 1 2.52126 4.36696 1.26168e-06 -7.04917e-05 -0.000148814 -7.79393e-06
14 1 3.78189 5.09478 0.514649 -0.000419887 -1.85035e-05 -2.57127e-05
15 1 3.78188 5.09477 2.0586 -0.000345593 0.00026946 -0.00013227
16 1 5.0425 5.82261 2.57325 0.000359824 -1.8229e-05 2.62186e-05
17 1 5.04252 5.8226 4.1172 -0.000314437 3.92313e-05 -2.52628e-05
18 1 6.30315 6.55043 4.63185 -0.000214237 7.40672e-05 -5.19756e-06
19 1 2.52123 8.31908e-06 1.03871e-05 0.000878529 -0.000237592 -0.000441432
20 1 3.78189 0.727831 0.514652 -0.000111826 -0.000253676 -0.00010126
21 1 3.78189 0.727821 2.0586 -0.000281136 0.000248825 0.000111398
22 1 5.04252 1.45565 2.57325 -0.000301951 -9.99396e-05 -2.87545e-05
23 1 5.04252 1.45565 4.1172 -0.000125082 -0.000118897 2.50682e-05
24 1 6.30315 2.18348 4.63185 -0.000213525 -3.82351e-05 0.000380254
25 1 3.78189 2.18348 -6.38699e-07 -9.36353e-05 8.6707e-06 7.49732e-05
26 1 5.04252 2.9113 0.51465 6.72155e-05 6.78464e-05 -1.15802e-05
27 1 5.04252 2.9113 2.0586 -5.47774e-05 3.40042e-06 -1.58374e-05
28 1 6.30315 3.63913 2.57325 1.19888e-05 0.000214579 -3.41936e-05
29 1 6.30315 3.63913 4.1172 -9.59864e-05 -4.16733e-05 5.5185e-05
30 1 7.56378 4.36695 4.63185 8.68066e-06 -5.19702e-05 -5.40482e-05
31 1 5.04252 4.36695 3.28602e-07 -9.30175e-05 0.00010107 -3.53209e-05
32 1 6.30315 5.09478 0.51465 -0.000211901 0.000304086 9.47222e-06
33 1 6.30315 5.09478 2.0586 -0.000368893 -0.000101571 0.000167342
34 1 7.56378 5.82261 2.57325 -6.76769e-05 -2.9204e-05 -1.94817e-05
35 1 7.56378 5.8226 4.1172 -0.000160631 7.7332e-05 -1.15877e-05
36 1 8.82441 6.55043 4.63185 3.23987e-06 5.23463e-05 4.53474e-06
37 1 5.04252 1.72889e-06 7.73087e-08 -0.000183703 -0.000100213 -3.83836e-05
38 1 6.30315 0.727823 0.514647 -0.000135393 0.000143357 0.000129309
39 1 6.30315 0.727826 2.0586 -7.36344e-05 -0.000164247 -0.000130527
40 1 7.56376 1.45566 2.57326 0.000945984 -0.000253687 -0.000443733
41 1 7.56378 1.45565 4.1172 -0.000159003 -0.00010399 0.000336161
42 1 8.82441 2.18347 4.63185 4.71799e-06 -6.91756e-05 5.77803e-05
43 1 6.30315 2.18348 -9.36372e-07 0.00011412 3.48823e-05 1.68925e-05
44 1 7.56378 2.91131 0.514647 -0.000206613 -0.000101705 0.000149424
45 1 7.56378 2.9113 2.0586 -0.000110084 0.000140779 -1.51423e-05
46 1 8.82442 3.63913 2.57325 -1.05408e-05 2.84072e-05 3.83711e-05
47 1 8.82441 3.63913 4.1172 0.000121491 -0.000115741 -2.22879e-05
48 1 10.085 4.36695 4.63185 -1.45931e-05 -7.65204e-06 -4.91532e-05
49 1 7.56378 4.36695 3.09239e-08 0.000113977 0.000271029 -0.000119159
50 1 8.82441 5.09478 0.514649 2.77038e-05 0.000150745 -2.4931e-06
51 1 8.82441 5.09478 2.0586 8.94335e-05 5.20194e-05 -5.13066e-06
52 1 10.085 5.8226 2.57325 -9.0977e-05 -7.14562e-05 2.726e-05
53 1 10.085 5.8226 4.1172 4.71417e-05 1.69726e-05 -2.78286e-05
54 1 11.3457 6.55043 4.63185 -2.974e-05 0.000110372 7.06494e-05
ITEM: TIMESTEP
3
ITEM: NUMBER OF ATOMS
54
ITEM: BOX BOUNDS xy xz yz pp pp pp
0.0000000000000000e+00 1.5127559633992522e+01 3.7818799084981309e+00
0.0000000000000000e+00 8.7339006268676993e+00 3.7818799084981309e+00
0.0000000000000000e+00 6.1758003594675879e+00 2.1834651567169248e+00
ITEM: ATOMS id type x y z fx fy fz
1 1 -1.55492e-05 -8.92486e-07 -1.08566e-06 0.000161272 7.84423e-05 -2.29157e-05
2 1 1.26061 0.727827 0.514651 0.000151819 2.82676e-06 -2.84058e-05
3 1 8.82441 0.727825 2.0586 7.92393e-05 -2.76162e-05 -1.99703e-05
4 1 2.52124 1.45565 2.57325 0.000181732 3.14119e-05 -6.35025e-05
5 1 2.52125 1.45565 4.1172 1.51352e-05 -8.79128e-06 0.000232997
6 1 3.78188 2.18347 4.63184 6.15839e-05 -7.82297e-05 0.000200956
7 1 1.26062 2.18348 1.19798e-06 2.46703e-05 2.56793e-05 -2.52557e-05
8 1 2.52125 2.9113 0.51465 0.000138112 -3.42253e-05 1.86453e-05
9 1 2.52125 2.9113 2.0586 7.42447e-05 2.07455e-05 6.7875e-05
10 1 3.78188 3.63912 2.57325 -0.000191162 0.000149409 -0.000185249
11 1 3.78188 3.63913 4.1172 -0.000213049 -7.41438e-05 -1.22965e-05
12 1 5.04251 4.36695 4.63185 3.61765e-05 -5.3144e-05 5.664e-06
13 1 2.52125 4.36695 1.26122e-06 -0.000237211 0.000224552 -0.000126485
14 1 3.78188 5.09478 0.514649 0.000120518 4.04788e-06 3.03394e-05
15 1 3.78188 5.09478 2.0586 3.93647e-05 -2.71459e-05 4.7604e-05
16 1 5.0425 5.82261 2.57325 1.79344e-05 -1.02651e-07 -3.3823e-08
17 1 5.04251 5.82261 4.1172 -3.62491e-05 -2.99852e-05 9.77685e-06
18 1 6.30314 6.55043 4.63185 -0.000193335 -9.06264e-05 -4.97655e-05
19 1 2.52125 4.33685e-06 2.32098e-06 0.000216135 -5.08661e-05 5.13644e-05
20 1 3.78188 0.727825 0.51465 0.000162615 5.19563e-05 -1.31862e-05
21 1 3.78188 0.727825 2.0586 0.000142477 -4.93152e-05 -1.57837e-05
22 1 5.04251 1.45565 2.57325 0.000139169 -3.60387e-06 -5.51623e-06
23 1 5.04252 1.45565 4.1172 -0.000216576 -9.55444e-06 -5.32292e-06
24 1 6.30314 2.18347 4.63186 6.31558e-05 -4.78935e-05 -0.000253095
25 1 3.78189 2.18348 8.79414e-07 -0.000105667 4.57292e-05 -2.70743e-05
26 1 5.04252 2.9113 0.51465 -5.02354e-05 2.71962e-05 -2.05947e-06
27 1 5.04252 2.9113 2.0586 -6.68425e-05 -4.00128e-06 2.14432e-05
28 1 6.30315 3.63913 2.57325 -0.000189403 -0.000170422 0.000122029
29 1 6.30315 3.63913 4.1172 -0.000158857 2.13208e-05 1.73624e-05
30 1 7.56378 4.36695 4.63185 -4.16026e-05 -1.60489e-05 3.4533e-05
31 1 5.04252 4.36696 -3.82954e-07 -0.000169379 4.85231e-05 1.59586e-05
32 1 6.30314 5.09479 0.51465 0.000122061 -1.36881e-05 -4.0171e-05
33 1 6.30314 5.09478 2.0586 9.35572e-05 3.61125e-05 -3.55112e-05
34 1 7.56378 5.82261 2.57325 -0.000164749 7.34811e-06 2.12145e-05
35 1 7.56378 5.8226 4.1172 -6.17369e-05 -3.96314e-05 3.18436e-07
36 1 8.82441 6.55043 4.63185 -8.2032e-05 -1.31989e-05 -1.39695e-05
37 1 5.04252 -1.85078e-07 -7.32779e-07 0.00017365 4.20489e-05 3.43276e-05
38 1 6.30315 0.727825 0.514649 0.000217277 9.51349e-06 -5.34942e-06
39 1 6.30315 0.727823 2.0586 0.000144817 2.05622e-05 -4.20594e-06
40 1 7.56377 1.45565 2.57325 0.00023708 -6.8995e-05 3.12163e-05
41 1 7.56378 1.45565 4.11721 7.14242e-05 2.00716e-05 -0.000222072
42 1 8.82441 2.18347 4.63185 -0.000168563 -5.01017e-05 -1.6913e-05
43 1 6.30315 2.18348 -6.98643e-07 -0.000103854 3.1706e-05 -4.58153e-06
44 1 7.56378 2.91131 0.51465 0.000194085 5.79897e-05 -4.40211e-05
45 1 7.56378 2.9113 2.0586 0.000130566 1.53501e-06 -3.66813e-06
46 1 8.82442 3.63913 2.57325 -0.000121567 2.61038e-06 -2.25029e-05
47 1 8.82441 3.63912 4.1172 -4.75555e-05 1.76648e-06 2.24999e-05
48 1 10.085 4.36695 4.63185 1.25293e-05 -3.38822e-05 1.64859e-05
49 1 7.56378 4.36696 -2.51146e-06 -0.000181084 -9.67794e-05 0.000179751
50 1 8.82441 5.09478 0.514648 -1.90403e-05 8.05801e-06 4.17851e-06
51 1 8.82441 5.09478 2.0586 -9.47646e-05 3.25762e-05 2.6089e-05
52 1 10.085 5.8226 2.57325 -0.00011064 4.882e-05 1.81198e-05
53 1 10.085 5.8226 4.1172 -5.9878e-05 5.65421e-06 3.77792e-05
54 1 11.3457 6.55043 4.63185 -0.000137363 3.37797e-05 3.53972e-07
ITEM: TIMESTEP
4
ITEM: NUMBER OF ATOMS
54
ITEM: BOX BOUNDS xy xz yz pp pp pp
0.0000000000000000e+00 1.5127559633992522e+01 3.7818799084981309e+00
0.0000000000000000e+00 8.7339006268676993e+00 3.7818799084981309e+00
0.0000000000000000e+00 6.1758003594675879e+00 2.1834651567169248e+00
ITEM: ATOMS id type x y z fx fy fz
1 1 -9.11956e-06 1.23405e-06 -2.49923e-07 4.08504e-05 -2.1751e-05 2.24437e-05
2 1 1.26062 0.727827 0.514651 7.8331e-06 1.05748e-05 -1.61552e-05
3 1 8.82442 0.727825 2.0586 3.58943e-05 -1.26553e-05 -1.79137e-05
4 1 2.52125 1.45565 2.57325 -1.54865e-05 -2.0356e-05 4.56781e-05
5 1 2.52125 1.45565 4.1172 2.32714e-05 -1.34192e-05 2.82549e-05
6 1 3.78188 2.18347 4.63185 -1.35551e-05 3.58794e-05 6.52319e-05
7 1 1.26062 2.18348 7.79525e-07 5.12827e-05 -1.53745e-05 -1.65038e-05
8 1 2.52125 2.9113 0.51465 -3.5688e-05 7.19703e-05 -1.05705e-05
9 1 2.52125 2.9113 2.0586 4.42291e-06 0.000106319 -7.96547e-05
10 1 3.78188 3.63913 2.57325 2.1368e-05 -3.04281e-05 8.64775e-05
11 1 3.78188 3.63912 4.1172 2.92059e-05 5.59156e-06 -1.20453e-08
12 1 5.04251 4.36695 4.63185 -9.47441e-05 -2.36498e-05 -1.0967e-05
13 1 2.52125 4.36696 -1.64547e-06 6.87224e-05 -5.83972e-05 5.28864e-05
14 1 3.78188 5.09478 0.514649 -4.2993e-05 0.000144272 -2.29303e-05
15 1 3.78188 5.09478 2.0586 -1.62503e-05 3.85491e-05 -1.79568e-05
16 1 5.04251 5.82261 2.57325 -2.37979e-05 -2.62356e-05 -9.31056e-06
17 1 5.04251 5.8226 4.1172 -6.67841e-05 -4.97877e-05 -1.19698e-05
18 1 6.30314 6.55043 4.63185 -2.67029e-05 1.97165e-05 2.66904e-05
19 1 2.52126 2.45661e-06 2.06049e-06 1.62297e-05 2.42829e-05 -7.56162e-05
20 1 3.78189 0.727826 0.51465 0.00017115 5.7608e-05 3.23006e-05
21 1 3.78188 0.727824 2.0586 0.000163705 -2.0645e-05 -3.87677e-05
22 1 5.04252 1.45565 2.57325 1.85947e-05 6.10176e-06 -9.05455e-07
23 1 5.04251 1.45565 4.1172 9.6813e-05 -2.55354e-05 -2.70739e-05
24 1 6.30314 2.18347 4.63185 -2.08855e-06 -2.04999e-05 -6.82439e-05
25 1 3.78189 2.18348 5.28428e-07 9.65562e-05 6.28584e-06 -1.01735e-05
26 1 5.04252 2.9113 0.51465 -9.63882e-05 1.86343e-05 2.48654e-06
27 1 5.04252 2.9113 2.0586 -0.00010469 -4.07942e-06 -2.37976e-05
28 1 6.30315 3.63913 2.57325 3.27952e-05 2.33529e-05 -4.98632e-05
29 1 6.30314 3.63913 4.1172 4.95315e-06 -6.67127e-05 -2.1531e-05
30 1 7.56378 4.36695 4.63185 -0.000111126 8.47413e-06 -1.1798e-05
31 1 5.04252 4.36696 -1.43332e-07 8.08691e-05 -1.52709e-05 -3.99647e-06
32 1 6.30315 5.09479 0.514649 -3.15125e-05 -0.000108614 6.62509e-05
33 1 6.30314 5.09478 2.0586 -4.05088e-05 -7.47384e-05 2.91751e-06
34 1 7.56377 5.82261 2.57325 5.69308e-05 -8.87716e-06 1.19509e-05
35 1 7.56377 5.8226 4.1172 -0.000118582 -4.28708e-05 1.64711e-05
36 1 8.8244 6.55043 4.63185 -0.000148839 -1.30206e-05 1.84089e-05
37 1 5.04252 4.39311e-07 -8.86395e-08 5.02474e-05 2.84175e-05 -7.41678e-06
38 1 6.30315 0.727826 0.51465 0.000146686 1.82113e-05 -2.51697e-05
39 1 6.30315 0.727822 2.0586 0.000174674 5.77988e-05 4.63113e-05
40 1 7.56378 1.45565 2.57325 -2.79386e-05 4.09954e-05 -4.15569e-05
41 1 7.56378 1.45565 4.1172 1.01491e-05 -4.60767e-05 -8.84412e-05
42 1 8.82441 2.18347 4.63185 7.14756e-05 3.9099e-05 2.07014e-05
43 1 6.30315 2.18348 -7.61461e-07 0.000107911 2.55962e-05 2.11323e-05
44 1 7.56378 2.91131 0.51465 -4.84936e-05 -2.60357e-05 2.11361e-05
45 1 7.56378 2.9113 2.0586 -8.70008e-06 -0.000122832 2.63019e-05
46 1 8.82441 3.63913 2.57325 4.49443e-05 2.773e-05 4.05838e-05
47 1 8.82441 3.63912 4.1172 -0.000117188 -3.39069e-06 8.3681e-06
48 1 10.085 4.36695 4.63185 -0.00013529 -1.34791e-06 2.85197e-05
49 1 7.56378 4.36696 1.16504e-06 5.56338e-05 1.9139e-05 -6.66819e-05
50 1 8.82441 5.09478 0.514648 -0.000140601 4.92872e-05 4.39516e-05
51 1 8.82441 5.09478 2.0586 -0.000101234 9.17495e-06 1.15246e-05
52 1 10.085 5.8226 2.57325 3.28683e-05 1.08482e-05 8.25548e-06
53 1 10.085 5.8226 4.1172 -0.000107354 5.98455e-06 3.7487e-06
54 1 11.3457 6.55043 4.63185 -3.95032e-05 -3.72931e-05 1.5994e-05
ITEM: TIMESTEP
5
ITEM: NUMBER OF ATOMS
54
ITEM: BOX BOUNDS xy xz yz pp pp pp
0.0000000000000000e+00 1.5127559633992522e+01 3.7818799084981309e+00
0.0000000000000000e+00 8.7339006268676993e+00 3.7818799084981309e+00
0.0000000000000000e+00 6.1758003594675879e+00 2.1834651567169248e+00
ITEM: ATOMS id type x y z fx fy fz
1 1 -5.87642e-06 1.48046e-06 5.73091e-07 -9.50027e-06 3.5267e-05 -9.08534e-06
2 1 1.26062 0.727827 0.51465 1.82106e-05 -5.42793e-06 -1.21529e-05
3 1 8.82442 0.727824 2.0586 -2.28552e-05 5.80881e-06 -1.47806e-07
4 1 2.52125 1.45565 2.57325 2.21951e-05 8.5777e-06 -2.93925e-05
5 1 2.52125 1.45564 4.1172 1.78661e-05 3.45118e-05 -3.85041e-05
6 1 3.78188 2.18347 4.63185 5.49514e-05 1.22574e-05 -7.24511e-05
7 1 1.26062 2.18348 2.4405e-07 -4.86914e-05 6.47967e-06 3.83719e-06
8 1 2.52125 2.91131 0.514649 2.80972e-05 -4.69013e-06 -2.23526e-05
9 1 2.52125 2.9113 2.0586 -1.97913e-05 2.17361e-06 3.81508e-05
10 1 3.78188 3.63913 2.57325 3.82916e-05 -3.35538e-06 3.06833e-05
11 1 3.78188 3.63912 4.1172 -3.22627e-05 1.94729e-05 5.43668e-05
12 1 5.04251 4.36695 4.63185 -4.13426e-06 -2.06871e-05 -1.39615e-05
13 1 2.52125 4.36696 -1.43973e-06 2.62606e-06 2.46486e-05 6.01897e-05
14 1 3.78188 5.09478 0.514649 1.58464e-05 -2.49196e-05 1.39746e-05
15 1 3.78188 5.09478 2.0586 -1.70429e-05 1.1081e-05 3.95977e-06
16 1 5.04251 5.82261 2.57325 -2.2646e-05 -2.00921e-05 -9.96631e-06
17 1 5.0425 5.8226 4.1172 -4.51684e-05 -8.77769e-06 2.19926e-06
18 1 6.30313 6.55043 4.63185 -6.42185e-07 -1.36588e-05 4.21393e-05
19 1 2.52126 2.35709e-06 1.96116e-07 1.55859e-07 -6.35879e-06 4.47153e-06
20 1 3.78189 0.727827 0.51465 1.94674e-05 6.53629e-06 -4.30451e-05
21 1 3.78189 0.727824 2.0586 3.40548e-06 8.08109e-06 4.08071e-05
22 1 5.04252 1.45565 2.57325 6.32031e-05 3.37768e-06 -1.15449e-05
23 1 5.04251 1.45565 4.1172 8.23261e-06 2.661e-06 8.59696e-06
24 1 6.30314 2.18347 4.63185 3.94144e-05 -3.44344e-05 3.38626e-05
25 1 3.78189 2.18348 1.65264e-07 5.45784e-07 2.85042e-05 4.92521e-08
26 1 5.04252 2.91131 0.51465 6.14058e-05 -2.9843e-06 -3.51019e-06
27 1 5.04251 2.9113 2.0586 1.85195e-05 8.35451e-06 4.28324e-06
28 1 6.30315 3.63913 2.57325 2.26923e-05 -2.85584e-05 -4.98639e-05
29 1 6.30314 3.63913 4.1172 -2.26677e-05 -1.25404e-05 -4.68511e-05
30 1 7.56377 4.36695 4.63185 -5.18889e-05 -3.49156e-05 -4.26132e-06
31 1 5.04252 4.36696 -1.51779e-07 -4.47055e-05 3.4782e-06 1.39671e-05
32 1 6.30315 5.09478 0.514651 2.83937e-07 4.44394e-06 -4.18703e-05
33 1 6.30314 5.09478 2.0586 -7.4665e-06 -1.68387e-05 1.98113e-05
34 1 7.56377 5.82261 2.57325 1.59704e-06 -2.78898e-05 3.88997e-06
35 1 7.56377 5.8226 4.1172 -6.79412e-05 1.96893e-05 2.56117e-06
36 1 8.8244 6.55043 4.63185 -5.06836e-06 -1.40465e-05 2.5212e-06
37 1 5.04253 1.32715e-06 -3.34067e-08 4.11827e-05 2.91616e-05 8.07414e-06
38 1 6.30316 0.727827 0.514649 2.90223e-05 1.19449e-05 3.93625e-05
39 1 6.30315 0.727824 2.0586 -1.20203e-05 1.69118e-05 -3.15349e-05
40 1 7.56378 1.45565 2.57325 1.60641e-05 -1.78913e-05 -5.11184e-06
41 1 7.56378 1.45565 4.1172 1.1957e-05 -1.30941e-05 6.71433e-05
42 1 8.82441 2.18347 4.63185 2.97685e-05 -4.43286e-06 -1.45636e-05
43 1 6.30315 2.18348 -2.88645e-07 -1.49612e-05 -2.22752e-06 1.7271e-05
44 1 7.56379 2.91131 0.51465 2.2046e-05 -1.74437e-05 4.20947e-06
45 1 7.56378 2.9113 2.0586 -2.56827e-05 3.06086e-05 -1.83397e-05
46 1 8.82441 3.63913 2.57325 -2.46414e-05 -9.24686e-06 -4.94507e-06
47 1 8.82441 3.63912 4.1172 -2.70811e-05 1.81782e-05 1.42203e-05
48 1 10.085 4.36695 4.63185 -4.23525e-05 2.28445e-05 -3.04897e-06
49 1 7.56378 4.36696 9.09744e-07 -3.2312e-06 -1.48445e-06 -2.0998e-05
50 1 8.82441 5.09478 0.514649 3.85756e-05 -3.58339e-06 -9.29739e-06
51 1 8.82441 5.09478 2.0586 2.58532e-05 1.17935e-05 2.23992e-05
52 1 10.085 5.82261 2.57325 1.10686e-05 1.70792e-05 -3.2599e-06
53 1 10.085 5.8226 4.1172 -8.33706e-05 -2.38316e-05 1.14211e-05
54 1 11.3457 6.55043 4.63185 -6.732e-06 -3.05159e-05 -4.83628e-05
ITEM: TIMESTEP
6
ITEM: NUMBER OF ATOMS
54
ITEM: BOX BOUNDS xy xz yz pp pp pp
0.0000000000000000e+00 1.5127559633992522e+01 3.7818799084981309e+00
0.0000000000000000e+00 8.7339006268676993e+00 3.7818799084981309e+00
0.0000000000000000e+00 6.1758003594675879e+00 2.1834651567169248e+00
ITEM: ATOMS id type x y z fx fy fz
1 1 -5.46608e-06 2.24747e-06 5.40757e-07 1.78238e-05 -1.02478e-05 -2.10259e-05
2 1 1.26063 0.727827 0.51465 -1.15876e-05 6.1777e-06 1.66022e-06
3 1 8.82442 0.727824 2.0586 1.15116e-05 -9.24152e-06 -9.92458e-06
4 1 2.52125 1.45565 2.57325 -8.31555e-06 2.43051e-06 -5.60905e-06
5 1 2.52125 1.45565 4.1172 2.1556e-05 -2.13853e-06 -2.29237e-05
6 1 3.78188 2.18347 4.63185 -3.05387e-06 1.53574e-05 -5.88599e-06
7 1 1.26062 2.18348 2.22683e-07 2.24615e-05 -6.64845e-06 -8.68041e-06
8 1 2.52125 2.91131 0.514649 -1.09299e-05 2.38764e-06 3.38968e-05
9 1 2.52125 2.9113 2.0586 1.73153e-05 -2.2857e-05 5.6323e-06
10 1 3.78188 3.63913 2.57325 -1.72217e-05 2.04104e-05 1.14149e-05
11 1 3.78188 3.63912 4.1172 -3.39196e-06 1.35245e-05 -1.24859e-05
12 1 5.04251 4.36695 4.63185 -2.01889e-05 2.48676e-06 5.75369e-06
13 1 2.52125 4.36696 -1.70727e-07 7.46147e-06 3.13917e-06 -1.98993e-06
14 1 3.78188 5.09478 0.514649 -7.36515e-06 -4.95374e-06 2.00883e-05
15 1 3.78187 5.09478 2.0586 1.07061e-05 -1.48263e-05 1.51935e-05
16 1 5.04251 5.82261 2.57325 -5.20865e-06 5.09717e-06 6.9725e-06
17 1 5.0425 5.8226 4.1172 2.90578e-06 -1.03238e-05 -4.58694e-06
18 1 6.30313 6.55043 4.63185 -2.95675e-05 2.73208e-05 4.58877e-06
19 1 2.52126 2.20853e-06 -6.00143e-08 1.43378e-05 5.27482e-07 6.97506e-06
20 1 3.78189 0.727827 0.51465 -1.90081e-05 -1.3848e-06 1.46213e-05
21 1 3.78189 0.727824 2.0586 -1.63203e-06 2.46608e-06 -1.99516e-05
22 1 5.04252 1.45565 2.57325 1.02216e-05 6.41636e-06 7.38653e-06
23 1 5.04251 1.45565 4.1172 3.74661e-05 -7.45372e-06 -7.89492e-06
24 1 6.30315 2.18347 4.63185 -7.89599e-07 -2.20897e-06 1.9248e-05
25 1 3.78189 2.18348 9.85706e-08 -3.66218e-06 -7.45888e-06 -1.1856e-05
26 1 5.04252 2.91131 0.51465 4.45124e-06 7.5216e-06 9.05969e-06
27 1 5.04251 2.9113 2.0586 5.50391e-05 -7.22022e-06 -4.30588e-06
28 1 6.30315 3.63913 2.57325 -1.4932e-05 -6.42887e-06 -3.158e-06
29 1 6.30314 3.63912 4.1172 -6.91656e-06 -3.22802e-05 -8.21898e-06
30 1 7.56377 4.36695 4.63185 -1.39838e-05 1.41888e-05 -6.82353e-06
31 1 5.04251 4.36696 1.32219e-07 2.60581e-06 -6.80266e-06 -6.86014e-06
32 1 6.30315 5.09478 0.51465 -5.0835e-06 1.93987e-05 -4.65342e-06
33 1 6.30314 5.09478 2.0586 7.20041e-06 -1.73905e-06 -3.25891e-05
34 1 7.56377 5.82261 2.57325 -2.56087e-05 1.00629e-05 1.30819e-05
35 1 7.56377 5.8226 4.1172 3.39048e-06 -1.78771e-05 1.0925e-05
36 1 8.8244 6.55043 4.63185 -3.49286e-05 3.02401e-06 5.76007e-06
37 1 5.04253 2.08891e-06 1.41974e-07 3.28686e-05 -2.5507e-06 -5.38394e-06
38 1 6.30316 0.727827 0.51465 -2.25042e-05 1.83296e-05 -8.0923e-06
39 1 6.30315 0.727824 2.0586 5.91695e-07 -1.30997e-05 5.69913e-06
40 1 7.56379 1.45565 2.57325 -9.54109e-06 1.36597e-05 2.27076e-05
41 1 7.56378 1.45565 4.1172 2.02968e-05 -1.60103e-05 4.83198e-06
42 1 8.82441 2.18347 4.63185 1.51209e-05 1.04994e-05 9.45317e-06
43 1 6.30315 2.18348 1.52622e-07 -1.43004e-06 2.01818e-06 -3.43392e-08
44 1 7.56379 2.91131 0.51465 -1.21375e-05 1.59261e-05 -1.35585e-05
45 1 7.56378 2.9113 2.0586 1.60361e-05 5.19512e-06 -1.64994e-05
46 1 8.82441 3.63913 2.57325 -1.97896e-05 1.09111e-05 6.93953e-06
47 1 8.82441 3.63912 4.1172 -1.22856e-05 -7.07828e-06 -8.75324e-06
48 1 10.085 4.36695 4.63185 -1.74747e-05 -4.57163e-06 2.16875e-05
49 1 7.56378 4.36696 4.32824e-07 6.18013e-06 -2.00024e-05 -1.39535e-05
50 1 8.82441 5.09478 0.51465 3.26461e-05 1.11551e-05 1.05093e-05
51 1 8.82441 5.09478 2.0586 2.25759e-05 -5.97249e-06 -7.10729e-06
52 1 10.085 5.82261 2.57325 -2.90949e-05 4.73889e-06 4.19156e-06
53 1 10.085 5.8226 4.1172 5.61057e-06 5.03223e-06 -1.46489e-05
54 1 11.3457 6.55043 4.63185 -3.07473e-05 -1.80264e-05 9.17705e-06
ITEM: TIMESTEP
7
ITEM: NUMBER OF ATOMS
54
ITEM: BOX BOUNDS xy xz yz pp pp pp
0.0000000000000000e+00 1.5127559633992522e+01 3.7818799084981309e+00
0.0000000000000000e+00 8.7339006268676993e+00 3.7818799084981309e+00
0.0000000000000000e+00 6.1758003594675879e+00 2.1834651567169248e+00
ITEM: ATOMS id type x y z fx fy fz
1 1 -5.05592e-06 2.27071e-06 1.73592e-07 -2.8758e-06 -3.85358e-06 2.30665e-07
2 1 1.26063 0.727827 0.51465 1.53436e-06 -1.89416e-06 -2.9609e-06
3 1 8.82442 0.727824 2.0586 -3.96e-06 2.17651e-06 2.63167e-06
4 1 2.52125 1.45565 2.57325 2.09101e-06 -7.89828e-06 -2.44676e-06
5 1 2.52125 1.45565 4.1172 2.82899e-07 1.66322e-06 -9.32734e-07
6 1 3.78188 2.18347 4.63185 5.7392e-06 -1.70221e-06 -2.90865e-06
7 1 1.26062 2.18348 6.90297e-08 5.23917e-06 2.47009e-06 2.87085e-06
8 1 2.52125 2.91131 0.514649 -1.45829e-06 -9.44498e-07 9.55086e-06
9 1 2.52125 2.9113 2.0586 -1.41841e-06 6.03382e-07 4.93347e-06
10 1 3.78188 3.63913 2.57325 5.36375e-06 -5.62735e-06 -5.34208e-06
11 1 3.78187 3.63912 4.1172 -6.93311e-06 5.49406e-06 -7.30785e-06
12 1 5.04251 4.36695 4.63185 4.17138e-06 -1.47933e-06 -2.15327e-06
13 1 2.52125 4.36696 1.2309e-07 3.41792e-07 -1.8375e-06 -2.17227e-06
14 1 3.78188 5.09478 0.51465 3.60501e-06 -8.84491e-07 9.18062e-07
15 1 3.78187 5.09478 2.0586 -6.98863e-06 3.71701e-06 1.07945e-05
16 1 5.04251 5.82261 2.57325 9.7675e-06 -1.16395e-06 -1.91524e-06
17 1 5.0425 5.8226 4.1172 -1.32813e-06 2.89021e-06 3.64781e-06
18 1 6.30313 6.55043 4.63185 -1.9524e-06 4.14802e-06 -1.03532e-05
19 1 2.52126 2.17916e-06 -7.13999e-09 -3.30856e-06 5.85836e-06 5.16681e-06
20 1 3.78189 0.727827 0.51465 3.56144e-06 -7.78617e-06 4.18284e-06
21 1 3.78189 0.727824 2.0586 -5.4755e-06 7.06853e-06 -5.21809e-06
22 1 5.04252 1.45565 2.57325 6.70602e-09 -4.46177e-06 -9.84891e-07
23 1 5.04251 1.45565 4.1172 -3.75729e-07 1.30489e-06 1.9699e-06
24 1 6.30315 2.18347 4.63185 8.87158e-06 -4.25805e-06 1.57246e-06
25 1 3.78189 2.18348 -1.20983e-07 -7.64065e-06 -4.64303e-06 8.46223e-06
26 1 5.04252 2.91131 0.51465 -6.32112e-06 -1.77707e-06 -1.34129e-06
27 1 5.04251 2.9113 2.0586 6.53765e-07 1.73818e-06 3.13375e-06
28 1 6.30315 3.63913 2.57325 8.5092e-06 3.43628e-06 -5.08211e-08
29 1 6.30314 3.63912 4.1172 -7.35348e-06 -2.22898e-06 9.82771e-06
30 1 7.56377 4.36695 4.63185 -1.32293e-06 -2.50896e-06 -3.53557e-06
31 1 5.04251 4.36696 8.85043e-08 4.70794e-06 3.62685e-06 1.1149e-06
32 1 6.30315 5.09478 0.51465 6.74645e-06 -4.50386e-07 -3.94489e-06
33 1 6.30314 5.09478 2.0586 -7.40399e-06 4.91213e-06 -9.02649e-06
34 1 7.56377 5.82261 2.57325 4.28469e-07 4.95084e-06 -8.21475e-06
35 1 7.56377 5.8226 4.1172 -1.03619e-05 2.91908e-06 4.32347e-06
36 1 8.8244 6.55043 4.63185 -1.78197e-06 -1.13527e-06 -2.78721e-06
37 1 5.04253 2.24214e-06 9.53961e-08 -5.39588e-06 -1.4099e-07 1.89152e-06
38 1 6.30316 0.727827 0.51465 3.13942e-06 1.73817e-06 -1.16804e-05
39 1 6.30315 0.727824 2.0586 -2.35803e-06 -3.45659e-06 9.93728e-06
40 1 7.56379 1.45565 2.57325 4.83866e-06 5.33926e-07 1.58368e-06
41 1 7.56378 1.45565 4.1172 3.00448e-06 -6.13671e-07 3.74822e-06
42 1 8.82441 2.18347 4.63185 8.21391e-06 -3.3379e-06 -9.31588e-07
43 1 6.30315 2.18348 2.66012e-07 -4.50442e-06 8.86698e-06 -3.27186e-06
44 1 7.56379 2.91131 0.51465 1.27256e-06 -1.03057e-06 -1.1175e-05
45 1 7.56378 2.9113 2.0586 1.29446e-06 1.31898e-06 2.67752e-07
46 1 8.82441 3.63913 2.57325 1.28746e-05 -1.46562e-06 -2.94173e-06
47 1 8.82441 3.63912 4.1172 -7.18572e-06 4.90295e-07 4.48433e-07
48 1 10.085 4.36695 4.63185 -1.73724e-06 -2.70746e-06 -2.36649e-06
49 1 7.56378 4.36696 7.15177e-08 3.05368e-06 7.50746e-06 3.31531e-06
50 1 8.82441 5.09478 0.51465 8.82151e-06 -1.0267e-06 -1.75158e-06
51 1 8.82441 5.09478 2.0586 -1.22686e-05 3.18009e-06 5.46848e-08
52 1 10.085 5.82261 2.57325 2.51828e-08 -9.56096e-06 2.81287e-06
53 1 10.085 5.8226 4.1172 -7.23784e-06 2.11701e-06 2.44552e-06
54 1 11.3457 6.55043 4.63185 7.88128e-07 -4.85509e-06 5.8785e-06
ITEM: TIMESTEP
8
ITEM: NUMBER OF ATOMS
54
ITEM: BOX BOUNDS xy xz yz pp pp pp
0.0000000000000000e+00 1.5127559633992522e+01 3.7818799084981309e+00
0.0000000000000000e+00 8.7339006268676993e+00 3.7818799084981309e+00
0.0000000000000000e+00 6.1758003594675879e+00 2.1834651567169248e+00
ITEM: ATOMS id type x y z fx fy fz
1 1 -5.05967e-06 2.20924e-06 1.38054e-07 4.9893e-07 1.02672e-06 -1.69503e-06
2 1 1.26063 0.727827 0.51465 -1.04836e-06 6.23689e-07 1.67918e-06
3 1 8.82442 0.727824 2.0586 5.80918e-07 -8.04297e-07 -1.69041e-07
4 1 2.52125 1.45565 2.57325 -1.25248e-06 2.06041e-06 1.46866e-08
5 1 2.52125 1.45565 4.1172 1.98271e-06 -8.4369e-07 -1.32424e-06
6 1 3.78188 2.18347 4.63185 2.60578e-07 -5.69584e-07 -1.33991e-06
7 1 1.26062 2.18348 1.002e-07 -2.24915e-06 -4.57522e-07 -3.52755e-07
8 1 2.52125 2.91131 0.51465 -2.07928e-07 -8.63575e-07 5.36878e-07
9 1 2.52125 2.9113 2.0586 2.25498e-06 -4.95247e-07 7.83496e-07
10 1 3.78188 3.63913 2.57325 9.55095e-07 -1.42036e-06 -5.52217e-07
11 1 3.78187 3.63912 4.1172 1.95113e-06 -2.71676e-06 -8.43126e-07
12 1 5.04251 4.36695 4.63185 9.30923e-07 1.41643e-06 1.02688e-06
13 1 2.52125 4.36696 1.18541e-07 2.61041e-06 -1.34196e-06 -1.11558e-06
14 1 3.78188 5.09478 0.51465 5.9806e-07 9.86977e-07 9.43325e-07
15 1 3.78187 5.09478 2.0586 1.32102e-06 -1.54418e-06 -7.87815e-07
16 1 5.04251 5.82261 2.57325 -4.0478e-06 1.75877e-06 8.39744e-07
17 1 5.0425 5.8226 4.1172 2.56309e-06 3.34718e-07 -9.934e-07
18 1 6.30313 6.55043 4.63185 1.95493e-07 -1.09323e-06 5.61108e-07
19 1 2.52126 2.27323e-06 8.42768e-08 1.90952e-06 -2.74052e-06 7.63303e-08
20 1 3.78189 0.727827 0.51465 -1.27995e-06 3.70657e-07 3.60669e-07
21 1 3.78189 0.727824 2.0586 1.23464e-06 -1.50744e-06 4.73129e-07
22 1 5.04252 1.45565 2.57325 -2.76324e-06 2.68653e-07 9.68471e-07
23 1 5.04251 1.45565 4.1172 -9.71993e-07 -1.13369e-06 5.33819e-08
24 1 6.30315 2.18347 4.63185 7.7247e-07 -9.32699e-09 2.22502e-06
25 1 3.78189 2.18348 -4.08441e-09 -1.71993e-06 -2.82502e-06 3.76329e-06
26 1 5.04252 2.91131 0.51465 -2.69328e-06 8.64241e-07 6.55315e-07
27 1 5.04251 2.9113 2.0586 -1.42976e-06 -7.84908e-07 -5.17291e-07
28 1 6.30315 3.63913 2.57325 1.4595e-06 3.24613e-06 1.7792e-06
29 1 6.30314 3.63912 4.1172 3.35948e-06 1.69229e-06 8.86331e-09
30 1 7.56377 4.36695 4.63185 -6.3695e-06 -2.11148e-06 5.43886e-06
31 1 5.04251 4.36696 1.0232e-07 1.13861e-06 4.15797e-07 -3.45641e-07
32 1 6.30315 5.09478 0.51465 1.10563e-06 1.54213e-06 -8.64956e-07
33 1 6.30314 5.09478 2.0586 2.72707e-06 1.71727e-06 -6.51046e-07
34 1 7.56377 5.82261 2.57325 -4.40296e-06 3.16875e-06 -3.95288e-06
35 1 7.56377 5.8226 4.1172 -3.85454e-06 2.90582e-06 -6.08235e-06
36 1 8.8244 6.55043 4.63185 -8.11339e-07 1.20089e-06 1.04677e-06