data.out (written by ASE) 

54 	 atoms 
1  atom types
0.0      7.5637798169962611  xlo xhi
0.0      6.5504254701507758  ylo yhi
0.0      6.1758003594675888  zlo zhi
    -3.7818899084981297     -3.7818899084981297      2.1834751567169262  xy xz yz


Atoms 

     1   1                       0                       0                       0
     2   1       1.260629969499377     0.72782505223897531     0.51465002995563236
     3   1       1.260629969499377     0.72782505223897564      2.0586001198225294
     4   1       2.521259938998754      1.4556501044779511      2.5732501497781617
     5   1       2.521259938998754      1.4556501044779513      4.1172002396450589
     6   1      3.7818899084981306      2.1834751567169266      4.6318502696006911
     7   1       1.260629969499377      2.1834751567169253 -2.2115825784970258e-16
     8   1       2.521259938998754      2.9113002089559004     0.51465002995563192
     9   1       2.521259938998754      2.9113002089559008      2.0586001198225294
    10   1       3.781889908498131      3.6391252611948763      2.5732501497781617
    11   1       3.781889908498131      3.6391252611948763      4.1172002396450589
    12   1       5.042519877997508      4.3669503134338514      4.6318502696006911
    13   1       2.521259938998754      4.3669503134338505 -4.4231651569940516e-16
    14   1       3.781889908498131      5.0947753656728256     0.51465002995563169
    15   1       3.781889908498131      5.0947753656728256      2.0586001198225286
    16   1       5.042519877997508      5.8226004179118016      2.5732501497781617
    17   1       5.042519877997508      5.8226004179118016      4.1172002396450589
    18   1      6.3031498474968846      6.5504254701507776      4.6318502696006911
    19   1       2.521259938998754   4.280271380715103e-16  2.2293095200036004e-16
    20   1       3.781889908498131     0.72782505223897564     0.51465002995563236
    21   1       3.781889908498131     0.72782505223897598      2.0586001198225299
    22   1       5.042519877997508      1.4556501044779513      2.5732501497781617
    23   1       5.042519877997508      1.4556501044779515      4.1172002396450589
    24   1      6.3031498474968854       2.183475156716927       4.631850269600692
    25   1       3.781889908498131      2.1834751567169257  1.7726941506574596e-18
    26   1       5.042519877997508      2.9113002089559008     0.51465002995563214
    27   1       5.042519877997508      2.9113002089559012      2.0586001198225294
    28   1      6.3031498474968846      3.6391252611948763      2.5732501497781617
    29   1      6.3031498474968846      3.6391252611948768      4.1172002396450589
    30   1       7.563779816996262      4.3669503134338523      4.6318502696006911
    31   1       5.042519877997508      4.3669503134338505 -2.1938556369904512e-16
    32   1      6.3031498474968846      5.0947753656728256     0.51465002995563236
    33   1      6.3031498474968846      5.0947753656728265      2.0586001198225294
    34   1       7.563779816996262      5.8226004179118016      2.5732501497781612
    35   1       7.563779816996262      5.8226004179118025       4.117200239645058
    36   1      8.8244097864956395      6.5504254701507776      4.6318502696006911
    37   1       5.042519877997508   8.560542761430206e-16  4.4586190400072008e-16
    38   1      6.3031498474968846     0.72782505223897609     0.51465002995563258
    39   1      6.3031498474968846     0.72782505223897642      2.0586001198225294
    40   1       7.563779816996262      1.4556501044779517      2.5732501497781626
    41   1       7.563779816996262       1.455650104477952      4.1172002396450598
    42   1      8.8244097864956395       2.183475156716927       4.631850269600692
    43   1      6.3031498474968846      2.1834751567169257   2.247036461510175e-16
    44   1       7.563779816996262      2.9113002089559012     0.51465002995563236
    45   1       7.563779816996262      2.9113002089559017      2.0586001198225294
    46   1      8.8244097864956395      3.6391252611948768      2.5732501497781621
    47   1      8.8244097864956395      3.6391252611948772      4.1172002396450589
    48   1      10.085039755995016      4.3669503134338523      4.6318502696006911
    49   1       7.563779816996262      4.3669503134338514  3.5453883013149192e-18
    50   1      8.8244097864956395      5.0947753656728265     0.51465002995563158
    51   1      8.8244097864956395      5.0947753656728265       2.058600119822529
    52   1      10.085039755995016      5.8226004179118025      2.5732501497781617
    53   1      10.085039755995016      5.8226004179118025      4.1172002396450589
    54   1      11.345669725494394      6.5504254701507785       4.631850269600692
