LAMMPS (24 Dec 2020)
  using 12 OpenMP thread(s) per MPI task
units       metal
processors  * * *
boundary    p p p
atom_modify map yes
neighbor    0.4 bin

#region      simbox prism 0. 7.565 0. 6.5512 0. 6.1765 3.7824 3.7824 2.1838
#create_box  1 simbox
#create_atoms 1 random 54 7793 simbox

region      simbox prism 0 1 0 1 0 1 0.2 0.2 0.1
#region      simbox block 0 1 0 1 0 1
create_box  1 simbox
Created triclinic box = (0.0000000 0.0000000 0.0000000) to (1.0000000 1.0000000 1.0000000) with tilt (0.20000000 0.20000000 0.10000000)
  1 by 1 by 1 MPI processor grid
##create_atoms 1 random 10 7793 simbox
read_dump   1.out 1 x y z add yes box yes
Scanning dump file ...
Reading snapshot from dump file ...
  triclinic box = (0.0000000 0.0000000 0.0000000) to (7.5637998 6.5504355 6.1758004) with tilt (3.7818799 3.7818799 2.1834652)
  0 atoms before read
  54 atoms in snapshot
  0 atoms purged
  0 atoms replaced
  0 atoms trimmed
  54 atoms added
  54 atoms after read
#read_data data.out

mass        1 12.0100
pair_style  tersoff
pair_coeff  * * /home/nwlundgren/potentials/lammps/C.tersoff C
Reading tersoff potential file /home/nwlundgren/potentials/lammps/C.tersoff with DATE: 2007-10-25
dump        myforces all custom 1 2.out id type x y z fx fy fz
thermo_style custom time step pe etotal vol density fmax fnorm
thermo      1
fix nve all nve
min_style   cg
minimize    0 1e-13 200 400
WARNING: Using 'neigh_modify every 1 delay 0 check yes' setting during minimization (src/min.cpp:188)
Neighbor list info ...
  update every 1 steps, delay 0 steps, check yes
  max neighbors/atom: 2000, page size: 100000
  master list distance cutoff = 2.5
  ghost atom cutoff = 2.5
  binsize = 1.25, bins = 13 7 5
  1 neighbor lists, perpetual/occasional/extra = 1 0 0
  (1) pair tersoff, perpetual
      attributes: full, newton on
      pair build: full/bin/atomonly
      stencil: full/bin/3d
      bin: standard
Per MPI rank memory allocation (min/avg/max) = 15.15 | 15.15 | 15.15 Mbytes
Time Step PotEng TotEng Volume Density Fmax Fnorm 
           0        1   -398.00777   -398.00777    305.98733    3.5195114 0.0064764278  0.010621862 
       0.001        2   -398.00777   -398.00777    305.98733    3.5195114 0.00094598374  0.003030061 
       0.002        3   -398.00777   -398.00777    305.98733    3.5195114 0.00025309477  0.001233023 
       0.003        4   -398.00777   -398.00777    305.98733    3.5195114 0.00017467395 0.00072810602 
       0.004        5   -398.00777   -398.00777    305.98733    3.5195114 8.3370588e-05 0.00033654069 
       0.005        6   -398.00777   -398.00777    305.98733    3.5195114 5.5039102e-05 0.00018722114 
       0.006        7   -398.00777   -398.00777    305.98733    3.5195114 1.2874632e-05 6.2158862e-05 
       0.007        8   -398.00777   -398.00777    305.98733    3.5195114 6.3695016e-06 2.6394225e-05 
       0.008        9   -398.00777   -398.00777    305.98733    3.5195114 2.2231058e-06 7.8807851e-06 
       0.009       10   -398.00777   -398.00777    305.98733    3.5195114 6.6628969e-07 2.2589516e-06 
        0.01       11   -398.00777   -398.00777    305.98733    3.5195114 1.4375083e-07 6.7141176e-07 
       0.011       12   -398.00777   -398.00777    305.98733    3.5195114 3.7042717e-08 1.5180825e-07 
       0.012       13   -398.00777   -398.00777    305.98733    3.5195114 1.4627373e-08 4.9467738e-08 
       0.013       14   -398.00777   -398.00777    305.98733    3.5195114 3.5959049e-09 1.2881696e-08 
       0.014       15   -398.00777   -398.00777    305.98733    3.5195114 2.0093367e-09 5.9793594e-09 
       0.015       16   -398.00777   -398.00777    305.98733    3.5195114 1.2048677e-09 4.286274e-09 
       0.016       17   -398.00777   -398.00777    305.98733    3.5195114 1.2537416e-11 5.6383785e-11 
       0.017       18   -398.00777   -398.00777    305.98733    3.5195114 4.9471538e-12 1.8019971e-11 
       0.018       19   -398.00777   -398.00777    305.98733    3.5195114 1.5606405e-12 7.1141223e-12 
       0.019       20   -398.00777   -398.00777    305.98733    3.5195114 5.0724702e-13 2.2730501e-12 
        0.02       21   -398.00777   -398.00777    305.98733    3.5195114 2.0210381e-13 7.3594691e-13 
       0.021       22   -398.00777   -398.00777    305.98733    3.5195114 1.2606582e-13 6.2506905e-13 
       0.022       23   -398.00777   -398.00777    305.98733    3.5195114 1.7230661e-13 6.9968599e-13 
       0.023       24   -398.00777   -398.00777    305.98733    3.5195114 1.3500312e-13 7.119265e-13 
       0.024       25   -398.00777   -398.00777    305.98733    3.5195114 1.0480505e-13 5.567497e-13 
       0.025       26   -398.00777   -398.00777    305.98733    3.5195114 1.0480505e-13 4.7939735e-13 
       0.026       27   -398.00777   -398.00777    305.98733    3.5195114 1.1191048e-13 4.9388582e-13 
       0.027       28   -398.00777   -398.00777    305.98733    3.5195114 1.5276669e-13 5.0531862e-13 
       0.028       29   -398.00777   -398.00777    305.98733    3.5195114 1.3500312e-13 5.6479694e-13 
       0.029       30   -398.00777   -398.00777    305.98733    3.5195114 1.0480505e-13 4.5750584e-13 
        0.03       31   -398.00777   -398.00777    305.98733    3.5195114 1.030287e-13 4.4702275e-13 
       0.031       32   -398.00777   -398.00777    305.98733    3.5195114 1.2967405e-13 4.0148208e-13 
       0.032       33   -398.00777   -398.00777    305.98733    3.5195114 1.2967405e-13 3.9391303e-13 
       0.033       34   -398.00777   -398.00777    305.98733    3.5195114 1.1901591e-13 4.064829e-13 
       0.034       35   -398.00777   -398.00777    305.98733    3.5195114 1.1723955e-13 4.0048758e-13 
       0.035       36   -398.00777   -398.00777    305.98733    3.5195114 9.7699626e-14 3.9941896e-13 
       0.036       37   -398.00777   -398.00777    305.98733    3.5195114 9.7699626e-14 4.0156926e-13 
       0.037       38   -398.00777   -398.00777    305.98733    3.5195114 8.8817842e-14 3.5737712e-13 
       0.038       39   -398.00777   -398.00777    305.98733    3.5195114 9.0594199e-14 3.6088631e-13 
       0.039       40   -398.00777   -398.00777    305.98733    3.5195114 1.2967405e-13 3.8862022e-13 
        0.04       41   -398.00777   -398.00777    305.98733    3.5195114 1.2967405e-13 4.1739979e-13 
       0.041       42   -398.00777   -398.00777    305.98733    3.5195114 1.1013412e-13 3.8510615e-13 
       0.042       43   -398.00777   -398.00777    305.98733    3.5195114 1.1013412e-13 3.821127e-13 
       0.043       44   -398.00777   -398.00777    305.98733    3.5195114 1.0125234e-13 3.8983513e-13 
       0.044       45   -398.00777   -398.00777    305.98733    3.5195114 1.0125234e-13 3.8873129e-13 
       0.045       46   -398.00777   -398.00777    305.98733    3.5195114 9.2370556e-14 3.6462106e-13 
       0.046       47   -398.00777   -398.00777    305.98733    3.5195114 9.3258734e-14 3.7419465e-13 
       0.047       48   -398.00777   -398.00777    305.98733    3.5195114 8.3488771e-14 3.5095512e-13 
       0.048       49   -398.00777   -398.00777    305.98733    3.5195114 1.2434498e-13 3.8660601e-13 
       0.049       50   -398.00777   -398.00777    305.98733    3.5195114 1.3145041e-13 3.9958969e-13 
        0.05       51   -398.00777   -398.00777    305.98733    3.5195114 1.2967405e-13 4.0886998e-13 
       0.051       52   -398.00777   -398.00777    305.98733    3.5195114 1.0214052e-13 4.3099841e-13 
       0.052       53   -398.00777   -398.00777    305.98733    3.5195114 1.0214052e-13 4.2818784e-13 
       0.053       54   -398.00777   -398.00777    305.98733    3.5195114 8.5265128e-14 3.9833435e-13 
       0.054       55   -398.00777   -398.00777    305.98733    3.5195114 7.9936058e-14 3.9345059e-13 
       0.055       56   -398.00777   -398.00777    305.98733    3.5195114 1.0835777e-13 3.7772859e-13 
       0.056       57   -398.00777   -398.00777    305.98733    3.5195114 1.0835777e-13 4.2124374e-13 
       0.057       58   -398.00777   -398.00777    305.98733    3.5195114 9.4395856e-14 4.2434616e-13 
       0.058       59   -398.00777   -398.00777    305.98733    3.5195114 9.5035091e-14 4.375791e-13 
       0.059       60   -398.00777   -398.00777    305.98733    3.5195114 7.6383344e-14 3.8784247e-13 
        0.06       61   -398.00777   -398.00777    305.98733    3.5195114 6.7057471e-14 3.6865738e-13 
       0.061       62   -398.00777   -398.00777    305.98733    3.5195114 1.0524914e-13 3.9408102e-13 
       0.062       63   -398.00777   -398.00777    305.98733    3.5195114 1.2168044e-13 4.2485767e-13 
       0.063       64   -398.00777   -398.00777    305.98733    3.5195114 9.5923269e-14 3.5965819e-13 
       0.064       65   -398.00777   -398.00777    305.98733    3.5195114 9.7699626e-14 3.4661226e-13 
       0.065       66   -398.00777   -398.00777    305.98733    3.5195114 9.4146912e-14 3.5819437e-13 
       0.066       67   -398.00777   -398.00777    305.98733    3.5195114 9.7699626e-14 3.5584054e-13 
       0.067       68   -398.00777   -398.00777    305.98733    3.5195114 8.1712415e-14 3.0761812e-13 
       0.068       69   -398.00777   -398.00777    305.98733    3.5195114 7.8159701e-14 3.1898787e-13 
       0.069       70   -398.00777   -398.00777    305.98733    3.5195114 9.9475983e-14 3.1520252e-13 
        0.07       71   -398.00777   -398.00777    305.98733    3.5195114 9.9475983e-14 3.2499498e-13 
       0.071       72   -398.00777   -398.00777    305.98733    3.5195114 8.3488771e-14 3.2311674e-13 
       0.072       73   -398.00777   -398.00777    305.98733    3.5195114 8.3488771e-14 3.1222226e-13 
       0.073       74   -398.00777   -398.00777    305.98733    3.5195114 9.4146912e-14 2.8839512e-13 
       0.074       75   -398.00777   -398.00777    305.98733    3.5195114 9.0594199e-14 2.9765445e-13 
       0.075       76   -398.00777   -398.00777    305.98733    3.5195114 1.2612134e-13 3.1966815e-13 
       0.076       77   -398.00777   -398.00777    305.98733    3.5195114 1.0835777e-13 3.1789029e-13 
       0.077       78   -398.00777   -398.00777    305.98733    3.5195114 9.4146912e-14 3.0874666e-13 
       0.078       79   -398.00777   -398.00777    305.98733    3.5195114 9.0594199e-14 3.1517004e-13 
       0.079       80   -398.00777   -398.00777    305.98733    3.5195114 1.2051471e-13 3.8751203e-13 
        0.08       81   -398.00777   -398.00777    305.98733    3.5195114 1.2051471e-13 3.8240358e-13 
       0.081       82   -398.00777   -398.00777    305.98733    3.5195114 1.1368684e-13 3.5146794e-13 
       0.082       83   -398.00777   -398.00777    305.98733    3.5195114 1.1546319e-13 3.4661484e-13 
       0.083       84   -398.00777   -398.00777    305.98733    3.5195114 8.3488771e-14 3.1874363e-13 
       0.084       85   -398.00777   -398.00777    305.98733    3.5195114 9.9475983e-14 3.2236478e-13 
       0.085       86   -398.00777   -398.00777    305.98733    3.5195114 1.1191048e-13 3.6205989e-13 
       0.086       87   -398.00777   -398.00777    305.98733    3.5195114 1.1013412e-13 3.5655401e-13 
       0.087       88   -398.00777   -398.00777    305.98733    3.5195114 1.0658141e-13 3.7700032e-13 
       0.088       89   -398.00777   -398.00777    305.98733    3.5195114 1.0658141e-13 3.7700032e-13 
       0.089       90   -398.00777   -398.00777    305.98733    3.5195114 1.0391688e-13 3.7174851e-13 
        0.09       91   -398.00777   -398.00777    305.98733    3.5195114 1.0125234e-13 3.6708773e-13 
       0.091       92   -398.00777   -398.00777    305.98733    3.5195114 1.0125234e-13 3.672208e-13 
       0.092       93   -398.00777   -398.00777    305.98733    3.5195114 1.030287e-13 3.6471725e-13 
       0.093       94   -398.00777   -398.00777    305.98733    3.5195114 9.5035091e-14 3.882084e-13 
       0.094       95   -398.00777   -398.00777    305.98733    3.5195114 9.9475983e-14 3.7330698e-13 
       0.095       96   -398.00777   -398.00777    305.98733    3.5195114 8.3488771e-14 3.2888099e-13 
       0.096       97   -398.00777   -398.00777    305.98733    3.5195114 1.0480505e-13 3.6670595e-13 
       0.097       98   -398.00777   -398.00777    305.98733    3.5195114 9.2370556e-14 3.515913e-13 
       0.098       99   -398.00777   -398.00777    305.98733    3.5195114 9.4146912e-14 3.3553404e-13 
       0.099      100   -398.00777   -398.00777    305.98733    3.5195114 8.7929664e-14 3.6552027e-13 
         0.1      101   -398.00777   -398.00777    305.98733    3.5195114 1.030287e-13 3.7817572e-13 
       0.101      102   -398.00777   -398.00777    305.98733    3.5195114 8.7041485e-14 3.2765687e-13 
       0.102      103   -398.00777   -398.00777    305.98733    3.5195114 8.7041485e-14 3.212941e-13 
       0.103      104   -398.00777   -398.00777    305.98733    3.5195114 7.8159701e-14 3.1273466e-13 
       0.104      105   -398.00777   -398.00777    305.98733    3.5195114 8.3488771e-14 3.2930252e-13 
       0.105      106   -398.00777   -398.00777    305.98733    3.5195114 1.1990409e-13 3.2439445e-13 
       0.106      107   -398.00777   -398.00777    305.98733    3.5195114 7.1054274e-14 2.8696146e-13 
       0.107      108   -398.00777   -398.00777    305.98733    3.5195114 8.3932861e-14 3.1759965e-13 
       0.108      109   -398.00777   -398.00777    305.98733    3.5195114 7.9936058e-14 3.0944474e-13 
       0.109      110   -398.00777   -398.00777    305.98733    3.5195114 8.7041485e-14 3.1552532e-13 
        0.11      111   -398.00777   -398.00777    305.98733    3.5195114 9.5923269e-14 3.4902429e-13 
       0.111      112   -398.00777   -398.00777    305.98733    3.5195114 7.9936058e-14 3.1522803e-13 
       0.112      113   -398.00777   -398.00777    305.98733    3.5195114 1.0125234e-13 3.454673e-13 
       0.113      114   -398.00777   -398.00777    305.98733    3.5195114 9.2370556e-14 3.304264e-13 
       0.114      115   -398.00777   -398.00777    305.98733    3.5195114 6.3948846e-14 3.0188323e-13 
       0.115      116   -398.00777   -398.00777    305.98733    3.5195114 7.283063e-14 3.1470601e-13 
       0.116      117   -398.00777   -398.00777    305.98733    3.5195114 7.283063e-14 3.3827964e-13 
       0.117      118   -398.00777   -398.00777    305.98733    3.5195114 1.1901591e-13 3.294137e-13 
       0.118      119   -398.00777   -398.00777    305.98733    3.5195114 1.1901591e-13 3.2721008e-13 
       0.119      120   -398.00777   -398.00777    305.98733    3.5195114 9.2370556e-14 3.4347611e-13 
        0.12      121   -398.00777   -398.00777    305.98733    3.5195114 9.7699626e-14 3.6283295e-13 
       0.121      122   -398.00777   -398.00777    305.98733    3.5195114 9.9475983e-14 3.5247131e-13 
       0.122      123   -398.00777   -398.00777    305.98733    3.5195114 9.9475983e-14 3.3641803e-13 
       0.123      124   -398.00777   -398.00777    305.98733    3.5195114 9.7699626e-14 3.6264562e-13 
       0.124      125   -398.00777   -398.00777    305.98733    3.5195114 9.7699626e-14 3.6575401e-13 
       0.125      126   -398.00777   -398.00777    305.98733    3.5195114 1.0480505e-13 3.4263206e-13 
       0.126      127   -398.00777   -398.00777    305.98733    3.5195114 1.0480505e-13 3.4528934e-13 
       0.127      128   -398.00777   -398.00777    305.98733    3.5195114 8.7041485e-14 3.1161058e-13 
       0.128      129   -398.00777   -398.00777    305.98733    3.5195114 8.7041485e-14 3.2072532e-13 
       0.129      130   -398.00777   -398.00777    305.98733    3.5195114 6.7945649e-14 3.3357655e-13 
        0.13      131   -398.00777   -398.00777    305.98733    3.5195114 6.9610984e-14 3.1940776e-13 
       0.131      132   -398.00777   -398.00777    305.98733    3.5195114 6.5725203e-14 3.0472319e-13 
       0.132      133   -398.00777   -398.00777    305.98733    3.5195114 7.283063e-14 2.8815062e-13 
       0.133      134   -398.00777   -398.00777    305.98733    3.5195114 6.5725203e-14 3.0066989e-13 
       0.134      135   -398.00777   -398.00777    305.98733    3.5195114 6.5725203e-14 2.8405966e-13 
       0.135      136   -398.00777   -398.00777    305.98733    3.5195114 7.1942452e-14 3.3185206e-13 
       0.136      137   -398.00777   -398.00777    305.98733    3.5195114 7.4218409e-14 3.2271648e-13 
       0.137      138   -398.00777   -398.00777    305.98733    3.5195114 9.9475983e-14 3.5432328e-13 
       0.138      139   -398.00777   -398.00777    305.98733    3.5195114 1.0080825e-13 3.8949519e-13 
       0.139      140   -398.00777   -398.00777    305.98733    3.5195114 9.5923269e-14 3.7813379e-13 
        0.14      141   -398.00777   -398.00777    305.98733    3.5195114 1.0169643e-13 3.9497152e-13 
       0.141      142   -398.00777   -398.00777    305.98733    3.5195114 1.6131541e-13 4.5038906e-13 
       0.142      143   -398.00777   -398.00777    305.98733    3.5195114 1.6309176e-13 4.3111739e-13 
       0.143      144   -398.00777   -398.00777    305.98733    3.5195114 7.9936058e-14 3.4020184e-13 
       0.144      145   -398.00777   -398.00777    305.98733    3.5195114 7.4606987e-14 3.3679662e-13 
       0.145      146   -398.00777   -398.00777    305.98733    3.5195114 9.7699626e-14 3.7227659e-13 
       0.146      147   -398.00777   -398.00777    305.98733    3.5195114 8.1712415e-14 3.9073474e-13 
       0.147      148   -398.00777   -398.00777    305.98733    3.5195114 9.5923269e-14 3.8568406e-13 
       0.148      149   -398.00777   -398.00777    305.98733    3.5195114 9.5923269e-14 4.047431e-13 
       0.149      150   -398.00777   -398.00777    305.98733    3.5195114 1.1191048e-13 3.6431125e-13 
        0.15      151   -398.00777   -398.00777    305.98733    3.5195114 1.1191048e-13 3.7704556e-13 
       0.151      152   -398.00777   -398.00777    305.98733    3.5195114 1.1723955e-13 3.8538842e-13 
       0.152      153   -398.00777   -398.00777    305.98733    3.5195114 1.1723955e-13 4.0325873e-13 
       0.153      154   -398.00777   -398.00777    305.98733    3.5195114 1.0125234e-13 4.2171002e-13 
       0.154      155   -398.00777   -398.00777    305.98733    3.5195114 9.9475983e-14 3.9310375e-13 
       0.155      156   -398.00777   -398.00777    305.98733    3.5195114 9.2370556e-14 3.7855521e-13 
       0.156      157   -398.00777   -398.00777    305.98733    3.5195114 9.5923269e-14 3.8543068e-13 
       0.157      158   -398.00777   -398.00777    305.98733    3.5195114 9.5923269e-14 3.8454103e-13 
       0.158      159   -398.00777   -398.00777    305.98733    3.5195114 8.5265128e-14 3.2908398e-13 
       0.159      160   -398.00777   -398.00777    305.98733    3.5195114 8.5265128e-14 3.3440389e-13 
        0.16      161   -398.00777   -398.00777    305.98733    3.5195114 6.750156e-14 3.0437538e-13 
       0.161      162   -398.00777   -398.00777    305.98733    3.5195114 1.0347279e-13 3.3454219e-13 
       0.162      163   -398.00777   -398.00777    305.98733    3.5195114 8.8817842e-14 3.472174e-13 
       0.163      164   -398.00777   -398.00777    305.98733    3.5195114 8.8817842e-14 3.4337892e-13 
       0.164      165   -398.00777   -398.00777    305.98733    3.5195114 1.0480505e-13 3.3018348e-13 
       0.165      166   -398.00777   -398.00777    305.98733    3.5195114 1.0480505e-13 3.2559574e-13 
       0.166      167   -398.00777   -398.00777    305.98733    3.5195114 8.7929664e-14 3.308667e-13 
       0.167      168   -398.00777   -398.00777    305.98733    3.5195114 7.9936058e-14 3.1001157e-13 
       0.168      169   -398.00777   -398.00777    305.98733    3.5195114 1.0125234e-13 3.4929597e-13 
       0.169      170   -398.00777   -398.00777    305.98733    3.5195114 8.3044682e-14 3.2581387e-13 
        0.17      171   -398.00777   -398.00777    305.98733    3.5195114 8.3488771e-14 3.0547818e-13 
       0.171      172   -398.00777   -398.00777    305.98733    3.5195114 9.0594199e-14 3.0670217e-13 
       0.172      173   -398.00777   -398.00777    305.98733    3.5195114 9.0594199e-14 3.1059611e-13 
       0.173      174   -398.00777   -398.00777    305.98733    3.5195114 8.3932861e-14 2.9750294e-13 
       0.174      175   -398.00777   -398.00777    305.98733    3.5195114 7.9936058e-14 3.1140069e-13 
       0.175      176   -398.00777   -398.00777    305.98733    3.5195114 8.0824236e-14 2.9670836e-13 
       0.176      177   -398.00777   -398.00777    305.98733    3.5195114 5.6121774e-14 2.6996581e-13 
       0.177      178   -398.00777   -398.00777    305.98733    3.5195114 8.8817842e-14 3.5866137e-13 
       0.178      179   -398.00777   -398.00777    305.98733    3.5195114 8.8817842e-14 3.7301852e-13 
       0.179      180   -398.00777   -398.00777    305.98733    3.5195114 8.3488771e-14 3.1808436e-13 
        0.18      181   -398.00777   -398.00777    305.98733    3.5195114 8.3488771e-14 3.2683367e-13 
       0.181      182   -398.00777   -398.00777    305.98733    3.5195114 1.0480505e-13 3.0628893e-13 
       0.182      183   -398.00777   -398.00777    305.98733    3.5195114 6.9277917e-14 2.9833764e-13 
       0.183      184   -398.00777   -398.00777    305.98733    3.5195114 7.835399e-14 3.130959e-13 
       0.184      185   -398.00777   -398.00777    305.98733    3.5195114 7.4384943e-14 3.3988641e-13 
       0.185      186   -398.00777   -398.00777    305.98733    3.5195114 1.0480505e-13 3.6335076e-13 
       0.186      187   -398.00777   -398.00777    305.98733    3.5195114 7.9936058e-14 3.4515217e-13 
       0.187      188   -398.00777   -398.00777    305.98733    3.5195114 1.0347279e-13 3.8026816e-13 
       0.188      189   -398.00777   -398.00777    305.98733    3.5195114 9.9475983e-14 3.6911018e-13 
       0.189      190   -398.00777   -398.00777    305.98733    3.5195114 8.7041485e-14 3.220996e-13 
        0.19      191   -398.00777   -398.00777    305.98733    3.5195114 8.7041485e-14 3.2525296e-13 
       0.191      192   -398.00777   -398.00777    305.98733    3.5195114 1.0835777e-13 3.6073478e-13 
       0.192      193   -398.00777   -398.00777    305.98733    3.5195114 1.0835777e-13 3.6152876e-13 
       0.193      194   -398.00777   -398.00777    305.98733    3.5195114 9.2814645e-14 3.3708433e-13 
       0.194      195   -398.00777   -398.00777    305.98733    3.5195114 9.2814645e-14 3.4632743e-13 
       0.195      196   -398.00777   -398.00777    305.98733    3.5195114 1.0658141e-13 3.1807955e-13 
       0.196      197   -398.00777   -398.00777    305.98733    3.5195114 1.0658141e-13 3.3980458e-13 
       0.197      198   -398.00777   -398.00777    305.98733    3.5195114 9.3258734e-14 3.6054236e-13 
       0.198      199   -398.00777   -398.00777    305.98733    3.5195114 9.2370556e-14 3.6116842e-13 
       0.199      200   -398.00777   -398.00777    305.98733    3.5195114 1.0835777e-13 3.420832e-13 
         0.2      201   -398.00777   -398.00777    305.98733    3.5195114 1.0835777e-13 3.3943153e-13 
Loop time of 0.0465132 on 12 procs for 200 steps with 54 atoms

100.0% CPU use with 1 MPI tasks x 12 OpenMP threads

Minimization stats:
  Stopping criterion = max force evaluations
  Energy initial, next-to-last, final = 
     -398.007766313076  -398.007767177054  -398.007767177054
  Force two-norm initial, final = 0.010621862 3.3943153e-13
  Force max component initial, final = 0.0064764278 1.0835777e-13
  Final line search alpha, max atom move = 1.0000000 1.0835777e-13
  Iterations, force evaluations = 200 400

MPI task timing breakdown:
Section |  min time  |  avg time  |  max time  |%varavg| %total
---------------------------------------------------------------
Pair    | 0.02848    | 0.02848    | 0.02848    |   0.0 | 61.23
Neigh   | 0          | 0          | 0          |   0.0 |  0.00
Comm    | 0.00037478 | 0.00037478 | 0.00037478 |   0.0 |  0.81
Output  | 0.017185   | 0.017185   | 0.017185   |   0.0 | 36.95
Modify  | 0          | 0          | 0          |   0.0 |  0.00
Other   |            | 0.0004738  |            |       |  1.02

Nlocal:        54.0000 ave          54 max          54 min
Histogram: 1 0 0 0 0 0 0 0 0 0
Nghost:        287.000 ave         287 max         287 min
Histogram: 1 0 0 0 0 0 0 0 0 0
Neighs:         0.00000 ave           0 max           0 min
Histogram: 1 0 0 0 0 0 0 0 0 0
FullNghs:      216.000 ave         216 max         216 min
Histogram: 1 0 0 0 0 0 0 0 0 0

Total # of neighbors = 216
Ave neighs/atom = 4.0000000
Neighbor list builds = 0
Dangerous builds = 0

#22-01-11 10:16:55,216 - kaldo - INFO - coordinate hi - x: 7.56463, y: 6.55116, z: 6.17649
#2022-01-11 10:16:55,216 - kaldo - INFO - tilts:  xy: 3.78231, xz: 3.78231, yz: 2.18372

#rerun      1.xyz every 1 dump type x y z box no replace yes scaled no format xyz
#rerun      1.out every 1 dump x y z box yes
#fix nve all nve
#run 5
Total wall time: 0:00:00
