ITEM: TIMESTEP
0
ITEM: NUMBER OF ATOMS
54
ITEM: BOX BOUNDS xy xz yz pp pp pp
0.0000000000000000e+00 1.5129799999999999e+01 3.7824000000000000e+00
0.0000000000000000e+00 8.7349999999999994e+00 3.7824000000000000e+00
0.0000000000000000e+00 6.1764999999999999e+00 2.1838000000000002e+00
ITEM: ATOMS id type x y z fx fy fz
1 1 7.56499 0 0 -11112.7 -11112.2 -11112.2
2 1 0.0833333 0.0833333 0.0833333 -9382.35 -9382.6 -9382.6
3 1 11.3474 6.5512 0.333333 -14162.6 -14162.6 -1540.09
4 1 11.4307 6.63453 0.416667 -10909.3 -10909.3 2247.51
5 1 11.3474 6.5512 0.666667 -12507 -12507 7923.86
6 1 11.4307 6.63453 0.75 -8498.81 -8498.81 14019.6
7 1 7.565 0.333333 0 -14162.6 -1540.09 -14162.6
8 1 7.64833 0.416667 0.0833333 -10909.3 2247.51 -10909.3
9 1 7.565 0.333333 0.333333 -18087.4 -2050.34 -2050.34
10 1 7.64833 0.416667 0.416667 -12729.7 2461.79 2461.79
11 1 7.565 0.333333 0.666667 -15922.3 -1951.6 9986.15
12 1 7.64833 0.416667 0.75 -9986.15 1951.6 15922.3
13 1 7.565 0.666667 0 -12507 7923.86 -12507
14 1 7.64833 0.75 0.0833333 -8498.81 14019.6 -8498.81
15 1 7.565 0.666667 0.333333 -15922.3 9986.15 -1951.6
16 1 7.64833 0.75 0.416667 -9986.15 15922.3 1951.6
17 1 7.565 0.666667 0.666667 -14019.6 8498.81 8498.81
18 1 7.64833 0.75 0.75 -7923.85 12507 12507
19 1 0.333333 0 0 -1540.15 -14162.6 -14162.6
20 1 0.416667 0.0833333 0.0833333 2247.49 -10909.3 -10909.3
21 1 4.11573 6.5512 0.333333 -2050.35 -18087.5 -2050.38
22 1 4.19907 6.63453 0.416667 2461.79 -12729.7 2461.77
23 1 4.11573 6.5512 0.666667 -1951.6 -15922.3 9986.14
24 1 4.19907 6.63453 0.75 1951.6 -9986.15 15922.3
25 1 0.333333 0.333333 0 -2050.35 -2050.38 -18087.5
26 1 0.416667 0.416667 0.0833333 2461.79 2461.77 -12729.7
27 1 0.333333 0.333333 0.333333 -2652.02 -2652.03 -2652.03
28 1 0.416667 0.416667 0.416667 2652.02 2652.01 2652.01
29 1 7.89833 0.333333 0.666667 -2461.79 -2461.8 12729.7
30 1 7.98167 0.416667 0.75 2050.34 2050.34 18087.5
31 1 7.89833 0.666667 0 -1951.6 9986.14 -15922.3
32 1 7.98167 0.75 0.0833333 1951.6 15922.3 -9986.15
33 1 7.89833 0.666667 0.333333 -2461.79 12729.7 -2461.8
34 1 7.98167 0.75 0.416667 2050.34 18087.5 2050.34
35 1 7.89833 0.666667 0.666667 -2247.53 10909.3 10909.3
36 1 7.98167 0.75 0.75 1540.09 14162.6 14162.6
37 1 0.666667 0 0 7923.84 -12507 -12507
38 1 0.75 0.0833333 0.0833333 14019.6 -8498.82 -8498.82
39 1 4.44907 6.5512 0.333333 9986.14 -15922.3 -1951.61
40 1 4.5324 6.63453 0.416667 15922.3 -9986.15 1951.6
41 1 4.44907 6.5512 0.666667 8498.81 -14019.6 8498.81
42 1 4.5324 6.63453 0.75 12507 -7923.86 12507
43 1 0.666667 0.333333 0 9986.14 -1951.61 -15922.3
44 1 0.75 0.416667 0.0833333 15922.3 1951.6 -9986.15
45 1 0.666667 0.333333 0.333333 12729.7 -2461.8 -2461.8
46 1 0.75 0.416667 0.416667 18087.5 2050.34 2050.34
47 1 0.666667 0.333333 0.666667 10909.3 -2247.53 10909.3
48 1 0.75 0.416667 0.75 14162.6 1540.08 14162.6
49 1 0.666667 0.666667 0 8498.81 8498.81 -14019.6
50 1 0.75 0.75 0.0833333 12507 12507 -7923.86
51 1 0.666667 0.666667 0.333333 10909.3 10909.3 -2247.53
52 1 0.75 0.75 0.416667 14162.6 14162.6 1540.08
53 1 0.666667 0.666667 0.666667 9382.47 9382.47 9382.47
54 1 0.75 0.75 0.75 11112.5 11112.5 11112.5
ITEM: TIMESTEP
1
ITEM: NUMBER OF ATOMS
54
ITEM: BOX BOUNDS xy xz yz pp pp pp
0.0000000000000000e+00 1.5129799999999999e+01 3.7824000000000000e+00
0.0000000000000000e+00 8.7349999999999994e+00 3.7824000000000000e+00
0.0000000000000000e+00 6.1764999999999999e+00 2.1838000000000002e+00
ITEM: ATOMS id type x y z fx fy fz
1 1 1.322e-05 0 0 -11112.4 -11112.9 -11112.9
2 1 0.0833333 0.0833333 0.0833333 -9382.59 -9382.35 -9382.35
3 1 11.3474 6.5512 0.333333 -14162.7 -14162.6 -1540.08
4 1 11.4307 6.63453 0.416667 -10909.4 -10909.3 2247.54
5 1 11.3474 6.5512 0.666667 -12507 -12507 7923.86
6 1 11.4307 6.63453 0.75 -8498.82 -8498.81 14019.6
7 1 7.565 0.333333 0 -14162.7 -1540.08 -14162.6
8 1 7.64833 0.416667 0.0833333 -10909.4 2247.54 -10909.3
9 1 7.565 0.333333 0.333333 -18087.5 -2050.34 -2050.34
10 1 7.64833 0.416667 0.416667 -12729.7 2461.8 2461.8
11 1 7.565 0.333333 0.666667 -15922.3 -1951.6 9986.15
12 1 7.64833 0.416667 0.75 -9986.15 1951.6 15922.3
13 1 7.565 0.666667 0 -12507 7923.86 -12507
14 1 7.64833 0.75 0.0833333 -8498.82 14019.6 -8498.81
15 1 7.565 0.666667 0.333333 -15922.3 9986.15 -1951.6
16 1 7.64833 0.75 0.416667 -9986.15 15922.3 1951.6
17 1 7.565 0.666667 0.666667 -14019.6 8498.81 8498.81
18 1 7.64833 0.75 0.75 -7923.86 12507 12507
19 1 0.333333 0 0 -1540.02 -14162.6 -14162.6
20 1 0.416667 0.0833333 0.0833333 2247.57 -10909.3 -10909.3
21 1 4.11573 6.5512 0.333333 -2050.34 -18087.5 -2050.31
22 1 4.19907 6.63453 0.416667 2461.8 -12729.7 2461.81
23 1 4.11573 6.5512 0.666667 -1951.6 -15922.3 9986.16
24 1 4.19907 6.63453 0.75 1951.6 -9986.15 15922.3
25 1 0.333333 0.333333 0 -2050.34 -2050.31 -18087.5
26 1 0.416667 0.416667 0.0833333 2461.8 2461.81 -12729.7
27 1 0.333333 0.333333 0.333333 -2652.02 -2652 -2652
28 1 0.416667 0.416667 0.416667 2652.02 2652.03 2652.03
29 1 7.89833 0.333333 0.666667 -2461.79 -2461.79 12729.7
30 1 7.98167 0.416667 0.75 2050.34 2050.35 18087.5
31 1 7.89833 0.666667 0 -1951.6 9986.16 -15922.3
32 1 7.98167 0.75 0.0833333 1951.6 15922.3 -9986.15
33 1 7.89833 0.666667 0.333333 -2461.79 12729.7 -2461.79
34 1 7.98167 0.75 0.416667 2050.34 18087.5 2050.35
35 1 7.89833 0.666667 0.666667 -2247.53 10909.3 10909.3
36 1 7.98167 0.75 0.75 1540.09 14162.6 14162.6
37 1 0.666667 0 0 7923.88 -12507 -12507
38 1 0.75 0.0833333 0.0833333 14019.6 -8498.81 -8498.81
39 1 4.44907 6.5512 0.333333 9986.16 -15922.3 -1951.59
40 1 4.5324 6.63453 0.416667 15922.3 -9986.15 1951.61
41 1 4.44907 6.5512 0.666667 8498.82 -14019.6 8498.82
42 1 4.5324 6.63453 0.75 12507 -7923.86 12507
43 1 0.666667 0.333333 0 9986.16 -1951.59 -15922.3
44 1 0.75 0.416667 0.0833333 15922.3 1951.61 -9986.15
45 1 0.666667 0.333333 0.333333 12729.7 -2461.79 -2461.79
46 1 0.75 0.416667 0.416667 18087.5 2050.35 2050.35
47 1 0.666667 0.333333 0.666667 10909.3 -2247.52 10909.3
48 1 0.75 0.416667 0.75 14162.6 1540.09 14162.6
49 1 0.666667 0.666667 0 8498.82 8498.82 -14019.6
50 1 0.75 0.75 0.0833333 12507 12507 -7923.86
51 1 0.666667 0.666667 0.333333 10909.3 10909.3 -2247.52
52 1 0.75 0.75 0.416667 14162.6 14162.6 1540.09
53 1 0.666667 0.666667 0.666667 9382.48 9382.48 9382.48
54 1 0.75 0.75 0.75 11112.5 11112.5 11112.5
ITEM: TIMESTEP
2
ITEM: NUMBER OF ATOMS
54
ITEM: BOX BOUNDS xy xz yz pp pp pp
0.0000000000000000e+00 1.5129799999999999e+01 3.7824000000000000e+00
0.0000000000000000e+00 8.7349999999999994e+00 3.7824000000000000e+00
0.0000000000000000e+00 6.1764999999999999e+00 2.1838000000000002e+00
ITEM: ATOMS id type x y z fx fy fz
1 1 3.78241 6.55118 0 -11112.1 -11112.9 -11112.4
2 1 0.0833333 0.0833333 0.0833333 -9382.69 -9382.26 -9382.55
3 1 11.3474 6.5512 0.333333 -14162.7 -14162.6 -1540.09
4 1 11.4307 6.63453 0.416667 -10909.3 -10909.3 2247.52
5 1 11.3474 6.5512 0.666667 -12507 -12507 7923.86
6 1 11.4307 6.63453 0.75 -8498.82 -8498.81 14019.6
7 1 7.565 0.333333 0 -14162.7 -1540.16 -14162.6
8 1 7.64833 0.416667 0.0833333 -10909.4 2247.49 -10909.3
9 1 7.565 0.333333 0.333333 -18087.5 -2050.35 -2050.38
10 1 7.64833 0.416667 0.416667 -12729.7 2461.79 2461.77
11 1 7.565 0.333333 0.666667 -15922.3 -1951.6 9986.14
12 1 7.64833 0.416667 0.75 -9986.15 1951.6 15922.3
13 1 7.565 0.666667 0 -12507 7923.83 -12507
14 1 7.64833 0.75 0.0833333 -8498.82 14019.6 -8498.82
15 1 7.565 0.666667 0.333333 -15922.3 9986.14 -1951.61
16 1 7.64833 0.75 0.416667 -9986.15 15922.3 1951.6
17 1 7.565 0.666667 0.666667 -14019.6 8498.81 8498.81
18 1 7.64833 0.75 0.75 -7923.86 12507 12507
19 1 0.333333 0 0 -1540.05 -14162.6 -14162.6
20 1 0.416667 0.0833333 0.0833333 2247.53 -10909.3 -10909.3
21 1 4.11573 6.5512 0.333333 -2050.34 -18087.4 -2050.33
22 1 4.19907 6.63453 0.416667 2461.79 -12729.7 2461.8
23 1 4.11573 6.5512 0.666667 -1951.6 -15922.3 9986.16
24 1 4.19907 6.63453 0.75 1951.6 -9986.15 15922.3
25 1 0.333333 0.333333 0 -2050.38 -2050.33 -18087.5
26 1 0.416667 0.416667 0.0833333 2461.77 2461.8 -12729.7
27 1 0.333333 0.333333 0.333333 -2652.03 -2652.01 -2652.03
28 1 0.416667 0.416667 0.416667 2652.01 2652.02 2652.01
29 1 7.89833 0.333333 0.666667 -2461.8 -2461.79 12729.7
30 1 7.98167 0.416667 0.75 2050.34 2050.34 18087.5
31 1 7.89833 0.666667 0 -1951.61 9986.14 -15922.3
32 1 7.98167 0.75 0.0833333 1951.59 15922.3 -9986.15
33 1 7.89833 0.666667 0.333333 -2461.8 12729.7 -2461.8
34 1 7.98167 0.75 0.416667 2050.34 18087.5 2050.34
35 1 7.89833 0.666667 0.666667 -2247.53 10909.3 10909.3
36 1 7.98167 0.75 0.75 1540.08 14162.6 14162.6
37 1 0.666667 0 0 7923.87 -12507 -12507
38 1 0.75 0.0833333 0.0833333 14019.6 -8498.81 -8498.81
39 1 4.44907 6.5512 0.333333 9986.16 -15922.3 -1951.6
40 1 4.5324 6.63453 0.416667 15922.3 -9986.15 1951.6
41 1 4.44907 6.5512 0.666667 8498.82 -14019.6 8498.82
42 1 4.5324 6.63453 0.75 12507 -7923.85 12507
43 1 0.666667 0.333333 0 9986.15 -1951.59 -15922.3
44 1 0.75 0.416667 0.0833333 15922.3 1951.61 -9986.15
45 1 0.666667 0.333333 0.333333 12729.7 -2461.79 -2461.79
46 1 0.75 0.416667 0.416667 18087.5 2050.35 2050.34
47 1 0.666667 0.333333 0.666667 10909.3 -2247.52 10909.3
48 1 0.75 0.416667 0.75 14162.6 1540.09 14162.6
49 1 0.666667 0.666667 0 8498.81 8498.81 -14019.6
50 1 0.75 0.75 0.0833333 12507 12507 -7923.86
51 1 0.666667 0.666667 0.333333 10909.3 10909.3 -2247.53
52 1 0.75 0.75 0.416667 14162.6 14162.6 1540.08
53 1 0.666667 0.666667 0.666667 9382.47 9382.47 9382.47
54 1 0.75 0.75 0.75 11112.5 11112.5 11112.5
ITEM: TIMESTEP
3
ITEM: NUMBER OF ATOMS
54
ITEM: BOX BOUNDS xy xz yz pp pp pp
0.0000000000000000e+00 1.5129799999999999e+01 3.7824000000000000e+00
0.0000000000000000e+00 8.7349999999999994e+00 3.7824000000000000e+00
0.0000000000000000e+00 6.1764999999999999e+00 2.1838000000000002e+00
ITEM: ATOMS id type x y z fx fy fz
1 1 7.56499 1.527e-05 0 -11113 -11112.2 -11112.7
2 1 0.0833333 0.0833333 0.0833333 -9382.26 -9382.68 -9382.4
3 1 11.3474 6.5512 0.333333 -14162.6 -14162.7 -1540.08
4 1 11.4307 6.63453 0.416667 -10909.3 -10909.4 2247.53
5 1 11.3474 6.5512 0.666667 -12507 -12507 7923.86
6 1 11.4307 6.63453 0.75 -8498.81 -8498.82 14019.6
7 1 7.565 0.333333 0 -14162.6 -1540.01 -14162.6
8 1 7.64833 0.416667 0.0833333 -10909.3 2247.57 -10909.3
9 1 7.565 0.333333 0.333333 -18087.5 -2050.33 -2050.31
10 1 7.64833 0.416667 0.416667 -12729.7 2461.8 2461.81
11 1 7.565 0.333333 0.666667 -15922.3 -1951.6 9986.16
12 1 7.64833 0.416667 0.75 -9986.15 1951.6 15922.3
13 1 7.565 0.666667 0 -12507 7923.88 -12507
14 1 7.64833 0.75 0.0833333 -8498.81 14019.6 -8498.81
15 1 7.565 0.666667 0.333333 -15922.3 9986.16 -1951.59
16 1 7.64833 0.75 0.416667 -9986.15 15922.3 1951.61
17 1 7.565 0.666667 0.666667 -14019.6 8498.82 8498.82
18 1 7.64833 0.75 0.75 -7923.86 12507 12507
19 1 0.333333 0 0 -1540.12 -14162.7 -14162.6
20 1 0.416667 0.0833333 0.0833333 2247.52 -10909.4 -10909.3
21 1 4.11573 6.5512 0.333333 -2050.35 -18087.5 -2050.36
22 1 4.19907 6.63453 0.416667 2461.79 -12729.7 2461.79
23 1 4.11573 6.5512 0.666667 -1951.6 -15922.3 9986.15
24 1 4.19907 6.63453 0.75 1951.6 -9986.16 15922.3
25 1 0.333333 0.333333 0 -2050.31 -2050.35 -18087.5
26 1 0.416667 0.416667 0.0833333 2461.81 2461.79 -12729.7
27 1 0.333333 0.333333 0.333333 -2652 -2652.03 -2652.01
28 1 0.416667 0.416667 0.416667 2652.03 2652.02 2652.02
29 1 7.89833 0.333333 0.666667 -2461.79 -2461.8 12729.7
30 1 7.98167 0.416667 0.75 2050.35 2050.34 18087.5
31 1 7.89833 0.666667 0 -1951.59 9986.16 -15922.3
32 1 7.98167 0.75 0.0833333 1951.61 15922.3 -9986.15
33 1 7.89833 0.666667 0.333333 -2461.79 12729.7 -2461.79
34 1 7.98167 0.75 0.416667 2050.35 18087.5 2050.35
35 1 7.89833 0.666667 0.666667 -2247.52 10909.3 10909.3
36 1 7.98167 0.75 0.75 1540.09 14162.6 14162.6
37 1 0.666667 0 0 7923.84 -12507 -12507
38 1 0.75 0.0833333 0.0833333 14019.6 -8498.82 -8498.82
39 1 4.44907 6.5512 0.333333 9986.14 -15922.3 -1951.61
40 1 4.5324 6.63453 0.416667 15922.3 -9986.16 1951.6
41 1 4.44907 6.5512 0.666667 8498.81 -14019.6 8498.81
42 1 4.5324 6.63453 0.75 12507 -7923.86 12507
43 1 0.666667 0.333333 0 9986.15 -1951.61 -15922.3
44 1 0.75 0.416667 0.0833333 15922.3 1951.6 -9986.15
45 1 0.666667 0.333333 0.333333 12729.7 -2461.8 -2461.79
46 1 0.75 0.416667 0.416667 18087.5 2050.34 2050.34
47 1 0.666667 0.333333 0.666667 10909.3 -2247.53 10909.3
48 1 0.75 0.416667 0.75 14162.6 1540.08 14162.6
49 1 0.666667 0.666667 0 8498.82 8498.81 -14019.6
50 1 0.75 0.75 0.0833333 12507 12507 -7923.86
51 1 0.666667 0.666667 0.333333 10909.3 10909.3 -2247.53
52 1 0.75 0.75 0.416667 14162.6 14162.6 1540.09
53 1 0.666667 0.666667 0.666667 9382.48 9382.47 9382.48
54 1 0.75 0.75 0.75 11112.5 11112.5 11112.5
ITEM: TIMESTEP
4
ITEM: NUMBER OF ATOMS
54
ITEM: BOX BOUNDS xy xz yz pp pp pp
0.0000000000000000e+00 1.5129799999999999e+01 3.7824000000000000e+00
0.0000000000000000e+00 8.7349999999999994e+00 3.7824000000000000e+00
0.0000000000000000e+00 6.1764999999999999e+00 2.1838000000000002e+00
ITEM: ATOMS id type x y z fx fy fz
1 1 3.78241 2.18381 6.17648 -11112.2 -11112.2 -11113
2 1 0.0833333 0.0833333 0.0833333 -9382.63 -9382.63 -9382.23
3 1 11.3474 6.5512 0.333333 -14162.7 -14162.7 -1540.17
4 1 11.4307 6.63453 0.416667 -10909.4 -10909.4 2247.49
5 1 11.3474 6.5512 0.666667 -12507 -12507 7923.83
6 1 11.4307 6.63453 0.75 -8498.82 -8498.82 14019.6
7 1 7.565 0.333333 0 -14162.7 -1540.06 -14162.6
8 1 7.64833 0.416667 0.0833333 -10909.3 2247.53 -10909.3
9 1 7.565 0.333333 0.333333 -18087.5 -2050.38 -2050.34
10 1 7.64833 0.416667 0.416667 -12729.7 2461.77 2461.79
11 1 7.565 0.333333 0.666667 -15922.3 -1951.61 9986.14
12 1 7.64833 0.416667 0.75 -9986.15 1951.59 15922.3
13 1 7.565 0.666667 0 -12507 7923.86 -12507
14 1 7.64833 0.75 0.0833333 -8498.81 14019.6 -8498.81
15 1 7.565 0.666667 0.333333 -15922.3 9986.15 -1951.6
16 1 7.64833 0.75 0.416667 -9986.15 15922.3 1951.6
17 1 7.565 0.666667 0.666667 -14019.6 8498.81 8498.81
18 1 7.64833 0.75 0.75 -7923.86 12507 12507
19 1 0.333333 0 0 -1540.06 -14162.7 -14162.6
20 1 0.416667 0.0833333 0.0833333 2247.53 -10909.3 -10909.3
21 1 4.11573 6.5512 0.333333 -2050.38 -18087.5 -2050.34
22 1 4.19907 6.63453 0.416667 2461.77 -12729.7 2461.79
23 1 4.11573 6.5512 0.666667 -1951.61 -15922.3 9986.14
24 1 4.19907 6.63453 0.75 1951.59 -9986.15 15922.3
25 1 0.333333 0.333333 0 -2050.33 -2050.33 -18087.4
26 1 0.416667 0.416667 0.0833333 2461.8 2461.8 -12729.7
27 1 0.333333 0.333333 0.333333 -2652.03 -2652.03 -2652.01
28 1 0.416667 0.416667 0.416667 2652.01 2652.01 2652.02
29 1 7.89833 0.333333 0.666667 -2461.8 -2461.8 12729.7
30 1 7.98167 0.416667 0.75 2050.34 2050.34 18087.5
31 1 7.89833 0.666667 0 -1951.6 9986.16 -15922.3
32 1 7.98167 0.75 0.0833333 1951.6 15922.3 -9986.15
33 1 7.89833 0.666667 0.333333 -2461.79 12729.7 -2461.79
34 1 7.98167 0.75 0.416667 2050.34 18087.5 2050.35
35 1 7.89833 0.666667 0.666667 -2247.53 10909.3 10909.3
36 1 7.98167 0.75 0.75 1540.08 14162.6 14162.6
37 1 0.666667 0 0 7923.86 -12507 -12507
38 1 0.75 0.0833333 0.0833333 14019.6 -8498.81 -8498.81
39 1 4.44907 6.5512 0.333333 9986.15 -15922.3 -1951.6
40 1 4.5324 6.63453 0.416667 15922.3 -9986.15 1951.6
41 1 4.44907 6.5512 0.666667 8498.81 -14019.6 8498.81
42 1 4.5324 6.63453 0.75 12507 -7923.86 12507
43 1 0.666667 0.333333 0 9986.16 -1951.6 -15922.3
44 1 0.75 0.416667 0.0833333 15922.3 1951.6 -9986.15
45 1 0.666667 0.333333 0.333333 12729.7 -2461.79 -2461.79
46 1 0.75 0.416667 0.416667 18087.5 2050.34 2050.35
47 1 0.666667 0.333333 0.666667 10909.3 -2247.53 10909.3
48 1 0.75 0.416667 0.75 14162.6 1540.08 14162.6
49 1 0.666667 0.666667 0 8498.82 8498.82 -14019.6
50 1 0.75 0.75 0.0833333 12507 12507 -7923.85
51 1 0.666667 0.666667 0.333333 10909.3 10909.3 -2247.52
52 1 0.75 0.75 0.416667 14162.6 14162.6 1540.09
53 1 0.666667 0.666667 0.666667 9382.47 9382.47 9382.48
54 1 0.75 0.75 0.75 11112.5 11112.5 11112.5
ITEM: TIMESTEP
5
ITEM: NUMBER OF ATOMS
54
ITEM: BOX BOUNDS xy xz yz pp pp pp
0.0000000000000000e+00 1.5129799999999999e+01 3.7824000000000000e+00
0.0000000000000000e+00 8.7349999999999994e+00 3.7824000000000000e+00
0.0000000000000000e+00 6.1764999999999999e+00 2.1838000000000002e+00
ITEM: ATOMS id type x y z fx fy fz
1 1 11.3474 6.55119 1.619e-05 -11112.9 -11112.9 -11112.1
2 1 0.0833333 0.0833333 0.0833333 -9382.32 -9382.32 -9382.72
3 1 11.3474 6.5512 0.333333 -14162.6 -14162.6 -1540
4 1 11.4307 6.63453 0.416667 -10909.3 -10909.3 2247.57
5 1 11.3474 6.5512 0.666667 -12507 -12507 7923.88
6 1 11.4307 6.63453 0.75 -8498.81 -8498.81 14019.6
7 1 7.565 0.333333 0 -14162.6 -1540.11 -14162.7
8 1 7.64833 0.416667 0.0833333 -10909.3 2247.52 -10909.4
9 1 7.565 0.333333 0.333333 -18087.5 -2050.31 -2050.35
10 1 7.64833 0.416667 0.416667 -12729.7 2461.81 2461.79
11 1 7.565 0.333333 0.666667 -15922.3 -1951.59 9986.16
12 1 7.64833 0.416667 0.75 -9986.15 1951.61 15922.3
13 1 7.565 0.666667 0 -12507 7923.85 -12507
14 1 7.64833 0.75 0.0833333 -8498.81 14019.6 -8498.82
15 1 7.565 0.666667 0.333333 -15922.3 9986.16 -1951.61
16 1 7.64833 0.75 0.416667 -9986.15 15922.3 1951.6
17 1 7.565 0.666667 0.666667 -14019.6 8498.82 8498.82
18 1 7.64833 0.75 0.75 -7923.86 12507 12507
19 1 0.333333 0 0 -1540.11 -14162.6 -14162.7
20 1 0.416667 0.0833333 0.0833333 2247.52 -10909.3 -10909.4
21 1 4.11573 6.5512 0.333333 -2050.31 -18087.5 -2050.35
22 1 4.19907 6.63453 0.416667 2461.81 -12729.7 2461.79
23 1 4.11573 6.5512 0.666667 -1951.59 -15922.3 9986.16
24 1 4.19907 6.63453 0.75 1951.61 -9986.15 15922.3
25 1 0.333333 0.333333 0 -2050.36 -2050.36 -18087.5
26 1 0.416667 0.416667 0.0833333 2461.79 2461.79 -12729.7
27 1 0.333333 0.333333 0.333333 -2652.01 -2652.01 -2652.03
28 1 0.416667 0.416667 0.416667 2652.02 2652.02 2652.01
29 1 7.89833 0.333333 0.666667 -2461.79 -2461.79 12729.7
30 1 7.98167 0.416667 0.75 2050.35 2050.35 18087.5
31 1 7.89833 0.666667 0 -1951.6 9986.14 -15922.3
32 1 7.98167 0.75 0.0833333 1951.6 15922.3 -9986.16
33 1 7.89833 0.666667 0.333333 -2461.79 12729.7 -2461.8
34 1 7.98167 0.75 0.416667 2050.34 18087.5 2050.34
35 1 7.89833 0.666667 0.666667 -2247.52 10909.3 10909.3
36 1 7.98167 0.75 0.75 1540.09 14162.6 14162.6
37 1 0.666667 0 0 7923.85 -12507 -12507
38 1 0.75 0.0833333 0.0833333 14019.6 -8498.81 -8498.82
39 1 4.44907 6.5512 0.333333 9986.16 -15922.3 -1951.61
40 1 4.5324 6.63453 0.416667 15922.3 -9986.15 1951.6
41 1 4.44907 6.5512 0.666667 8498.82 -14019.6 8498.82
42 1 4.5324 6.63453 0.75 12507 -7923.86 12507
43 1 0.666667 0.333333 0 9986.14 -1951.6 -15922.3
44 1 0.75 0.416667 0.0833333 15922.3 1951.6 -9986.16
45 1 0.666667 0.333333 0.333333 12729.7 -2461.79 -2461.8
46 1 0.75 0.416667 0.416667 18087.5 2050.34 2050.34
47 1 0.666667 0.333333 0.666667 10909.3 -2247.52 10909.3
48 1 0.75 0.416667 0.75 14162.6 1540.09 14162.6
49 1 0.666667 0.666667 0 8498.81 8498.81 -14019.6
50 1 0.75 0.75 0.0833333 12507 12507 -7923.86
51 1 0.666667 0.666667 0.333333 10909.3 10909.3 -2247.53
52 1 0.75 0.75 0.416667 14162.6 14162.6 1540.08
53 1 0.666667 0.666667 0.666667 9382.48 9382.48 9382.47
54 1 0.75 0.75 0.75 11112.5 11112.5 11112.5
ITEM: TIMESTEP
6
ITEM: NUMBER OF ATOMS
54
ITEM: BOX BOUNDS xy xz yz pp pp pp
0.0000000000000000e+00 1.5129799999999999e+01 3.7824000000000000e+00
0.0000000000000000e+00 8.7349999999999994e+00 3.7824000000000000e+00
0.0000000000000000e+00 6.1764999999999999e+00 2.1838000000000002e+00
ITEM: ATOMS id type x y z fx fy fz
1 1 0 0 0 -11112.4 -11112.7 -11112.7
2 1 0.0833201 0.0833333 0.0833333 -9382.74 -9382.25 -9382.25
3 1 11.3474 6.5512 0.333333 -14162.6 -14162.7 -1540.04
4 1 11.4307 6.63453 0.416667 -10909.3 -10909.3 2247.53
5 1 11.3474 6.5512 0.666667 -12507 -12507 7923.86
6 1 11.4307 6.63453 0.75 -8498.81 -8498.81 14019.6
7 1 7.565 0.333333 0 -14162.6 -1540.04 -14162.7
8 1 7.64833 0.416667 0.0833333 -10909.3 2247.53 -10909.3
9 1 7.565 0.333333 0.333333 -18087.4 -2050.33 -2050.33
10 1 7.64833 0.416667 0.416667 -12729.7 2461.79 2461.79
11 1 7.565 0.333333 0.666667 -15922.3 -1951.6 9986.15
12 1 7.64833 0.416667 0.75 -9986.15 1951.6 15922.3
13 1 7.565 0.666667 0 -12507 7923.86 -12507
14 1 7.64833 0.75 0.0833333 -8498.81 14019.6 -8498.81
15 1 7.565 0.666667 0.333333 -15922.3 9986.15 -1951.6
16 1 7.64833 0.75 0.416667 -9986.15 15922.3 1951.6
17 1 7.565 0.666667 0.666667 -14019.6 8498.82 8498.82
18 1 7.64833 0.75 0.75 -7923.85 12507 12507
19 1 0.333333 0 0 -1540.13 -14162.6 -14162.6
20 1 0.416667 0.0833333 0.0833333 2247.46 -10909.3 -10909.3
21 1 4.11573 6.5512 0.333333 -2050.35 -18087.5 -2050.4
22 1 4.19907 6.63453 0.416667 2461.78 -12729.7 2461.76
23 1 4.11573 6.5512 0.666667 -1951.6 -15922.3 9986.14
24 1 4.19907 6.63453 0.75 1951.6 -9986.15 15922.3
25 1 0.333333 0.333333 0 -2050.35 -2050.4 -18087.5
26 1 0.416667 0.416667 0.0833333 2461.78 2461.76 -12729.7
27 1 0.333333 0.333333 0.333333 -2652.01 -2652.05 -2652.05
28 1 0.416667 0.416667 0.416667 2652.02 2652 2652
29 1 7.89833 0.333333 0.666667 -2461.79 -2461.8 12729.7
30 1 7.98167 0.416667 0.75 2050.35 2050.34 18087.5
31 1 7.89833 0.666667 0 -1951.6 9986.14 -15922.3
32 1 7.98167 0.75 0.0833333 1951.6 15922.3 -9986.15
33 1 7.89833 0.666667 0.333333 -2461.79 12729.7 -2461.8
34 1 7.98167 0.75 0.416667 2050.35 18087.5 2050.34
35 1 7.89833 0.666667 0.666667 -2247.52 10909.3 10909.3
36 1 7.98167 0.75 0.75 1540.09 14162.6 14162.6
37 1 0.666667 0 0 7923.83 -12507 -12507
38 1 0.75 0.0833333 0.0833333 14019.6 -8498.81 -8498.81
39 1 4.44907 6.5512 0.333333 9986.13 -15922.3 -1951.61
40 1 4.5324 6.63453 0.416667 15922.3 -9986.15 1951.59
41 1 4.44907 6.5512 0.666667 8498.81 -14019.6 8498.81
42 1 4.5324 6.63453 0.75 12507 -7923.86 12507
43 1 0.666667 0.333333 0 9986.13 -1951.61 -15922.3
44 1 0.75 0.416667 0.0833333 15922.3 1951.59 -9986.15
45 1 0.666667 0.333333 0.333333 12729.7 -2461.8 -2461.8
46 1 0.75 0.416667 0.416667 18087.5 2050.34 2050.34
47 1 0.666667 0.333333 0.666667 10909.3 -2247.53 10909.3
48 1 0.75 0.416667 0.75 14162.6 1540.08 14162.6
49 1 0.666667 0.666667 0 8498.81 8498.81 -14019.6
50 1 0.75 0.75 0.0833333 12507 12507 -7923.86
51 1 0.666667 0.666667 0.333333 10909.3 10909.3 -2247.53
52 1 0.75 0.75 0.416667 14162.6 14162.6 1540.08
53 1 0.666667 0.666667 0.666667 9382.47 9382.47 9382.47
54 1 0.75 0.75 0.75 11112.5 11112.5 11112.5
ITEM: TIMESTEP
7
ITEM: NUMBER OF ATOMS
54
ITEM: BOX BOUNDS xy xz yz pp pp pp
0.0000000000000000e+00 1.5129799999999999e+01 3.7824000000000000e+00
0.0000000000000000e+00 8.7349999999999994e+00 3.7824000000000000e+00
0.0000000000000000e+00 6.1764999999999999e+00 2.1838000000000002e+00
ITEM: ATOMS id type x y z fx fy fz
1 1 0 0 0 -11112.7 -11112.4 -11112.4
2 1 0.0833465 0.0833333 0.0833333 -9382.21 -9382.7 -9382.7
3 1 11.3474 6.5512 0.333333 -14162.7 -14162.6 -1540.13
4 1 11.4307 6.63453 0.416667 -10909.4 -10909.3 2247.53
5 1 11.3474 6.5512 0.666667 -12507 -12507 7923.85
6 1 11.4307 6.63453 0.75 -8498.82 -8498.81 14019.6
7 1 7.565 0.333333 0 -14162.7 -1540.13 -14162.6
8 1 7.64833 0.416667 0.0833333 -10909.4 2247.53 -10909.3
9 1 7.565 0.333333 0.333333 -18087.5 -2050.36 -2050.36
10 1 7.64833 0.416667 0.416667 -12729.7 2461.79 2461.79
11 1 7.565 0.333333 0.666667 -15922.3 -1951.6 9986.15
12 1 7.64833 0.416667 0.75 -9986.16 1951.6 15922.3
13 1 7.565 0.666667 0 -12507 7923.85 -12507
14 1 7.64833 0.75 0.0833333 -8498.82 14019.6 -8498.81
15 1 7.565 0.666667 0.333333 -15922.3 9986.15 -1951.6
16 1 7.64833 0.75 0.416667 -9986.16 15922.3 1951.6
17 1 7.565 0.666667 0.666667 -14019.6 8498.81 8498.81
18 1 7.64833 0.75 0.75 -7923.86 12507 12507
19 1 0.333333 0 0 -1540.04 -14162.7 -14162.7
20 1 0.416667 0.0833333 0.0833333 2247.59 -10909.3 -10909.3
21 1 4.11573 6.5512 0.333333 -2050.34 -18087.5 -2050.29
22 1 4.19907 6.63453 0.416667 2461.8 -12729.7 2461.83
23 1 4.11573 6.5512 0.666667 -1951.61 -15922.3 9986.16
24 1 4.19907 6.63453 0.75 1951.6 -9986.15 15922.3
25 1 0.333333 0.333333 0 -2050.34 -2050.29 -18087.5
26 1 0.416667 0.416667 0.0833333 2461.8 2461.83 -12729.7
27 1 0.333333 0.333333 0.333333 -2652.02 -2651.99 -2651.99
28 1 0.416667 0.416667 0.416667 2652.02 2652.03 2652.03
29 1 7.89833 0.333333 0.666667 -2461.8 -2461.79 12729.7
30 1 7.98167 0.416667 0.75 2050.34 2050.35 18087.5
31 1 7.89833 0.666667 0 -1951.61 9986.16 -15922.3
32 1 7.98167 0.75 0.0833333 1951.6 15922.3 -9986.15
33 1 7.89833 0.666667 0.333333 -2461.8 12729.7 -2461.79
34 1 7.98167 0.75 0.416667 2050.34 18087.5 2050.35
35 1 7.89833 0.666667 0.666667 -2247.53 10909.3 10909.3
36 1 7.98167 0.75 0.75 1540.08 14162.6 14162.6
37 1 0.666667 0 0 7923.88 -12507 -12507
38 1 0.75 0.0833333 0.0833333 14019.6 -8498.81 -8498.81
39 1 4.44907 6.5512 0.333333 9986.17 -15922.3 -1951.59
40 1 4.5324 6.63453 0.416667 15922.3 -9986.15 1951.61
41 1 4.44907 6.5512 0.666667 8498.82 -14019.6 8498.82
42 1 4.5324 6.63453 0.75 12507 -7923.86 12507
43 1 0.666667 0.333333 0 9986.17 -1951.59 -15922.3
44 1 0.75 0.416667 0.0833333 15922.3 1951.61 -9986.15
45 1 0.666667 0.333333 0.333333 12729.7 -2461.78 -2461.78
46 1 0.75 0.416667 0.416667 18087.5 2050.35 2050.35
47 1 0.666667 0.333333 0.666667 10909.3 -2247.52 10909.3
48 1 0.75 0.416667 0.75 14162.6 1540.09 14162.6
49 1 0.666667 0.666667 0 8498.82 8498.82 -14019.6
50 1 0.75 0.75 0.0833333 12507 12507 -7923.86
51 1 0.666667 0.666667 0.333333 10909.3 10909.3 -2247.52
52 1 0.75 0.75 0.416667 14162.6 14162.6 1540.09
53 1 0.666667 0.666667 0.666667 9382.47 9382.48 9382.48
54 1 0.75 0.75 0.75 11112.5 11112.5 11112.5
ITEM: TIMESTEP
8
ITEM: NUMBER OF ATOMS
54
ITEM: BOX BOUNDS xy xz yz pp pp pp
0.0000000000000000e+00 1.5129799999999999e+01 3.7824000000000000e+00
0.0000000000000000e+00 8.7349999999999994e+00 3.7824000000000000e+00
0.0000000000000000e+00 6.1764999999999999e+00 2.1838000000000002e+00
ITEM: ATOMS id type x y z fx fy fz
1 1 0 0 0 -11112.8 -11112.3 -11112.6
2 1 0.083341 0.0833181 0.0833333 -9382.06 -9382.91 -9382.34
3 1 11.3474 6.5512 0.333333 -14162.7 -14162.6 -1540.06
4 1 11.4307 6.63453 0.416667 -10909.4 -10909.3 2247.53
5 1 11.3474 6.5512 0.666667 -12507 -12507 7923.86
6 1 11.4307 6.63453 0.75 -8498.82 -8498.8 14019.6
7 1 7.565 0.333333 0 -14162.6 -1540.17 -14162.6
8 1 7.64833 0.416667 0.0833333 -10909.4 2247.45 -10909.3
9 1 7.565 0.333333 0.333333 -18087.5 -2050.36 -2050.41
10 1 7.64833 0.416667 0.416667 -12729.7 2461.78 2461.75
11 1 7.565 0.333333 0.666667 -15922.3 -1951.6 9986.14
12 1 7.64833 0.416667 0.75 -9986.15 1951.6 15922.3
13 1 7.565 0.666667 0 -12507 7923.82 -12507
14 1 7.64833 0.75 0.0833333 -8498.82 14019.6 -8498.81
15 1 7.565 0.666667 0.333333 -15922.3 9986.13 -1951.62
16 1 7.64833 0.75 0.416667 -9986.15 15922.3 1951.59
17 1 7.565 0.666667 0.666667 -14019.6 8498.81 8498.8
18 1 7.64833 0.75 0.75 -7923.86 12507 12507
19 1 0.333333 0 0 -1540.01 -14162.6 -14162.7
20 1 0.416667 0.0833333 0.0833333 2247.57 -10909.3 -10909.3
21 1 4.11573 6.5512 0.333333 -2050.32 -18087.4 -2050.3
22 1 4.19907 6.63453 0.416667 2461.8 -12729.7 2461.81
23 1 4.11573 6.5512 0.666667 -1951.6 -15922.3 9986.16
24 1 4.19907 6.63453 0.75 1951.6 -9986.14 15922.3
25 1 0.333333 0.333333 0 -2050.4 -2050.32 -18087.5
26 1 0.416667 0.416667 0.0833333 2461.76 2461.8 -12729.7
27 1 0.333333 0.333333 0.333333 -2652.05 -2652 -2652.03
28 1 0.416667 0.416667 0.416667 2652 2652.03 2652.01
29 1 7.89833 0.333333 0.666667 -2461.8 -2461.78 12729.7
30 1 7.98167 0.416667 0.75 2050.34 2050.35 18087.5
31 1 7.89833 0.666667 0 -1951.62 9986.14 -15922.3
32 1 7.98167 0.75 0.0833333 1951.59 15922.3 -9986.15
33 1 7.89833 0.666667 0.333333 -2461.81 12729.7 -2461.8
34 1 7.98167 0.75 0.416667 2050.34 18087.5 2050.34
35 1 7.89833 0.666667 0.666667 -2247.53 10909.3 10909.3
36 1 7.98167 0.75 0.75 1540.08 14162.6 14162.6
37 1 0.666667 0 0 7923.88 -12507 -12507
38 1 0.75 0.0833333 0.0833333 14019.6 -8498.8 -8498.81
39 1 4.44907 6.5512 0.333333 9986.17 -15922.3 -1951.59
40 1 4.5324 6.63453 0.416667 15922.3 -9986.14 1951.61
41 1 4.44907 6.5512 0.666667 8498.82 -14019.6 8498.82
42 1 4.5324 6.63453 0.75 12507 -7923.85 12507
43 1 0.666667 0.333333 0 9986.15 -1951.59 -15922.3
44 1 0.75 0.416667 0.0833333 15922.3 1951.61 -9986.15
45 1 0.666667 0.333333 0.333333 12729.7 -2461.78 -2461.79
46 1 0.75 0.416667 0.416667 18087.5 2050.35 2050.34
47 1 0.666667 0.333333 0.666667 10909.3 -2247.52 10909.3
48 1 0.75 0.416667 0.75 14162.6 1540.09 14162.6
49 1 0.666667 0.666667 0 8498.81 8498.81 -14019.6
50 1 0.75 0.75 0.0833333 12507 12507 -7923.86
51 1 0.666667 0.666667 0.333333 10909.3 10909.3 -2247.53
52 1 0.75 0.75 0.416667 14162.6 14162.6 1540.08
53 1 0.666667 0.666667 0.666667 9382.47 9382.48 9382.47
54 1 0.75 0.75 0.75 11112.5 11112.5 11112.5
ITEM: TIMESTEP
9
ITEM: NUMBER OF ATOMS
54
ITEM: BOX BOUNDS xy xz yz pp pp pp
0.0000000000000000e+00 1.5129799999999999e+01 3.7824000000000000e+00
0.0000000000000000e+00 8.7349999999999994e+00 3.7824000000000000e+00
0.0000000000000000e+00 6.1764999999999999e+00 2.1838000000000002e+00
ITEM: ATOMS id type x y z fx fy fz
1 1 0 0 0 -11112.3 -11112.8 -11112.5
2 1 0.0833257 0.0833486 0.0833333 -9382.89 -9382.04 -9382.61
3 1 11.3474 6.5512 0.333333 -14162.6 -14162.7 -1540.11
4 1 11.4307 6.63453 0.416667 -10909.3 -10909.4 2247.53
5 1 11.3474 6.5512 0.666667 -12507 -12507 7923.85
6 1 11.4307 6.63453 0.75 -8498.81 -8498.82 14019.6
7 1 7.565 0.333333 0 -14162.7 -1540 -14162.7
8 1 7.64833 0.416667 0.0833333 -10909.3 2247.6 -10909.3
9 1 7.565 0.333333 0.333333 -18087.5 -2050.33 -2050.27
10 1 7.64833 0.416667 0.416667 -12729.7 2461.8 2461.83
11 1 7.565 0.333333 0.666667 -15922.3 -1951.61 9986.17
12 1 7.64833 0.416667 0.75 -9986.15 1951.6 15922.3
13 1 7.565 0.666667 0 -12507 7923.89 -12507
14 1 7.64833 0.75 0.0833333 -8498.81 14019.6 -8498.81
15 1 7.565 0.666667 0.333333 -15922.3 9986.17 -1951.59
16 1 7.64833 0.75 0.416667 -9986.15 15922.3 1951.61
17 1 7.565 0.666667 0.666667 -14019.6 8498.82 8498.82
18 1 7.64833 0.75 0.75 -7923.86 12507 12507
19 1 0.333333 0 0 -1540.16 -14162.7 -14162.6
20 1 0.416667 0.0833333 0.0833333 2247.49 -10909.4 -10909.3
21 1 4.11573 6.5512 0.333333 -2050.36 -18087.5 -2050.39
22 1 4.19907 6.63453 0.416667 2461.79 -12729.7 2461.77
23 1 4.11573 6.5512 0.666667 -1951.6 -15922.3 9986.14
24 1 4.19907 6.63453 0.75 1951.6 -9986.16 15922.3
25 1 0.333333 0.333333 0 -2050.29 -2050.37 -18087.5
26 1 0.416667 0.416667 0.0833333 2461.83 2461.78 -12729.7