200
Lattice="50.0 0.0 0.0 0.0 50.0 0.0 0.0 0.0 21.589999999999996" Properties=species:S:1:pos:R:3:forces:R:3 energy=-1563.7863783078428 stress="1.7541246179785986e-08 -1.34764083574682e-08 1.3450571606819863e-08 -1.34764083574682e-08 -1.9464966384060893e-08 -4.37675765907874e-09 1.3450571606819863e-08 -4.37675765907874e-09 2.5917447687111994e-05" free_energy=-1563.7863783078428 pbc="T T T"
C      12.92750000       8.91420000       2.87910000       0.00051780       0.00021539       0.00000403 
C      12.73110000      10.15440000       3.59760000      -0.00045524       0.00064523      -0.00018352 
C      12.92750000       8.91420000       1.43860000       0.00050782       0.00065827       0.00164326 
C      12.16100000      11.27320000       2.87910000      -0.00002164       0.00051599       0.00025576 
C      11.27310000      12.16110000       3.59760000      -0.00222740       0.00114186      -0.00155051 
C      12.73110000      10.15440000       0.72010000      -0.00039722       0.00038068       0.00019626 
C      12.16100000      11.27320000       1.43860000      -0.00002164       0.00051599      -0.00025576 
C      10.15420000      12.73120000       2.87910000       0.00315482      -0.00122905       0.00118664 
C       8.91400000      12.92760000       3.59760000      -0.00023249      -0.00008198       0.00021039 
C      11.27310000      12.16110000       0.72010000      -0.00222740       0.00114186       0.00155051 
C      10.15420000      12.73120000       1.43860000       0.00315482      -0.00122905      -0.00118664 
C       7.67380000      12.73110000       2.87910000      -0.00041936       0.00016046       0.00038440 
C       6.55500000      12.16100000       3.59760000      -0.00011570       0.00000729      -0.00047728 
C       8.91400000      12.92760000       0.72010000      -0.00023249      -0.00008198      -0.00021039 
C       7.67380000      12.73110000       1.43860000      -0.00041936       0.00016046      -0.00038440 
C       5.66710000      11.27310000       2.87910000      -0.00013822       0.00034045       0.00050383 
C       5.09700000      10.15430000       3.59760000       0.00034646       0.00037743       0.00013900 
C       6.55500000      12.16100000       0.72010000      -0.00011570       0.00000729       0.00047728 
C       5.66710000      11.27310000       1.43860000      -0.00013822       0.00034045      -0.00050383 
C       4.90060000       8.91410000       2.87910000       0.00023593      -0.00344002       0.00119399 
C       5.09710000       7.67380000       3.59760000      -0.00052991       0.00254793      -0.00155020 
C       5.09700000      10.15430000       0.72010000       0.00034646       0.00037743      -0.00013900 
C       4.90060000       8.91410000       1.43860000       0.00023593      -0.00344002      -0.00119399 
C       5.66720000       6.55500000       2.87910000      -0.00040760       0.00017333       0.00031634 
C       6.55510000       5.66710000       3.59760000      -0.00120083       0.00087706       0.00004761 
C       5.09710000       7.67380000       0.72010000      -0.00052991       0.00254793       0.00155020 
C       5.66720000       6.55500000       1.43860000      -0.00040760       0.00017333      -0.00031634 
C       7.67390000       5.09710000       2.87910000       0.00079295      -0.00061830      -0.00060398 
C       8.91410000       4.90070000       3.59760000       0.00299893      -0.00029858      -0.00116168 
C       6.55510000       5.66710000       0.72010000      -0.00120083       0.00087706      -0.00004761 
C       7.67390000       5.09710000       1.43860000       0.00079295      -0.00061830       0.00060398 
C      10.15440000       5.09710000       2.87910000      -0.00232232       0.00008587       0.00134945 
C      11.27320000       5.66720000       3.59760000       0.00022694      -0.00037861      -0.00009478 
C       8.91410000       4.90070000       0.72010000       0.00299893      -0.00029858       0.00116168 
C      10.15440000       5.09710000       1.43860000      -0.00232232       0.00008587      -0.00134945 
C      12.16110000       6.55510000       2.87910000      -0.00006967       0.00098600       0.00124631 
C      12.73110000       7.67400000       3.59760000      -0.00026457      -0.00198507      -0.00072200 
C      11.27320000       5.66720000       0.72010000       0.00042936      -0.00019872       0.00010751 
C      12.16110000       6.55510000       1.43860000      -0.00033786       0.00063390       0.00040059 
C      12.73110000       7.67400000       0.72010000      -0.00010882      -0.00203608      -0.00618012 
C      12.92750000       8.91420000       7.19710000       0.00045246      -0.00020891      -0.00024287 
C      12.73110000      10.15440000       7.91560000      -0.00045524       0.00064523      -0.00018352 
C      12.92750000       8.91420000       5.75660000       0.00045246      -0.00020891       0.00024287 
C      12.16100000      11.27320000       7.19710000      -0.00002164       0.00051599       0.00025576 
C      11.27310000      12.16110000       7.91560000      -0.00222740       0.00114186      -0.00155051 
C      12.73110000      10.15440000       5.03810000      -0.00045524       0.00064523       0.00018352 
C      12.16100000      11.27320000       5.75660000      -0.00002164       0.00051599      -0.00025576 
C      10.15420000      12.73120000       7.19710000       0.00315482      -0.00122905       0.00118664 
C       8.91400000      12.92760000       7.91560000      -0.00023249      -0.00008198       0.00021039 
C      11.27310000      12.16110000       5.03810000      -0.00222740       0.00114186       0.00155051 
C      10.15420000      12.73120000       5.75660000       0.00315482      -0.00122905      -0.00118664 
C       7.67380000      12.73110000       7.19710000      -0.00041936       0.00016046       0.00038440 
C       6.55500000      12.16100000       7.91560000      -0.00011570       0.00000729      -0.00047728 
C       8.91400000      12.92760000       5.03810000      -0.00023249      -0.00008198      -0.00021039 
C       7.67380000      12.73110000       5.75660000      -0.00041936       0.00016046      -0.00038440 
C       5.66710000      11.27310000       7.19710000      -0.00013822       0.00034045       0.00050383 
C       5.09700000      10.15430000       7.91560000       0.00034646       0.00037743       0.00013900 
C       6.55500000      12.16100000       5.03810000      -0.00011570       0.00000729       0.00047728 
C       5.66710000      11.27310000       5.75660000      -0.00013822       0.00034045      -0.00050383 
C       4.90060000       8.91410000       7.19710000       0.00023593      -0.00344002       0.00119399 
C       5.09710000       7.67380000       7.91560000      -0.00052991       0.00254793      -0.00155020 
C       5.09700000      10.15430000       5.03810000       0.00034646       0.00037743      -0.00013900 
C       4.90060000       8.91410000       5.75660000       0.00023593      -0.00344002      -0.00119399 
C       5.66720000       6.55500000       7.19710000      -0.00040760       0.00017333       0.00031634 
C       6.55510000       5.66710000       7.91560000      -0.00120083       0.00087706       0.00004761 
C       5.09710000       7.67380000       5.03810000      -0.00052991       0.00254793       0.00155020 
C       5.66720000       6.55500000       5.75660000      -0.00040760       0.00017333      -0.00031634 
C       7.67390000       5.09710000       7.19710000       0.00079295      -0.00061830      -0.00060398 
C       8.91410000       4.90070000       7.91560000       0.00299893      -0.00029858      -0.00116168 
C       6.55510000       5.66710000       5.03810000      -0.00120083       0.00087706      -0.00004761 
C       7.67390000       5.09710000       5.75660000       0.00079295      -0.00061830       0.00060398 
C      10.15440000       5.09710000       7.19710000      -0.00232232       0.00008587       0.00134945 
C      11.27320000       5.66720000       7.91560000       0.00022694      -0.00037861      -0.00009478 
C       8.91410000       4.90070000       5.03810000       0.00299893      -0.00029858       0.00116168 
C      10.15440000       5.09710000       5.75660000      -0.00232232       0.00008587      -0.00134945 
C      12.16110000       6.55510000       7.19710000       0.00012680       0.00136763       0.00099941 
C      12.73110000       7.67400000       7.91560000      -0.00026457      -0.00198507      -0.00072200 
C      11.27320000       5.66720000       5.03810000       0.00022694      -0.00037861       0.00009478 
C      12.16110000       6.55510000       5.75660000       0.00012680       0.00136763      -0.00099941 
C      12.73110000       7.67400000       5.03810000      -0.00026457      -0.00198507       0.00072200 
C      12.92750000       8.91420000      11.51510000       0.00045246      -0.00020891      -0.00024287 
C      12.73110000      10.15440000      12.23360000      -0.00045524       0.00064523      -0.00018352 
C      12.92750000       8.91420000      10.07460000       0.00045246      -0.00020891       0.00024287 
C      12.16100000      11.27320000      11.51510000      -0.00002164       0.00051599       0.00025576 
C      11.27310000      12.16110000      12.23360000      -0.00222740       0.00114186      -0.00155051 
C      12.73110000      10.15440000       9.35610000      -0.00045524       0.00064523       0.00018352 
C      12.16100000      11.27320000      10.07460000      -0.00002164       0.00051599      -0.00025576 
C      10.15420000      12.73120000      11.51510000       0.00315482      -0.00122905       0.00118664 
C       8.91400000      12.92760000      12.23360000      -0.00023249      -0.00008198       0.00021039 
C      11.27310000      12.16110000       9.35610000      -0.00222740       0.00114186       0.00155051 
C      10.15420000      12.73120000      10.07460000       0.00315482      -0.00122905      -0.00118664 
C       7.67380000      12.73110000      11.51510000      -0.00041936       0.00016046       0.00038440 
C       6.55500000      12.16100000      12.23360000      -0.00011570       0.00000729      -0.00047728 
C       8.91400000      12.92760000       9.35610000      -0.00023249      -0.00008198      -0.00021039 
C       7.67380000      12.73110000      10.07460000      -0.00041936       0.00016046      -0.00038440 
C       5.66710000      11.27310000      11.51510000      -0.00013822       0.00034045       0.00050383 
C       5.09700000      10.15430000      12.23360000       0.00034646       0.00037743       0.00013900 
C       6.55500000      12.16100000       9.35610000      -0.00011570       0.00000729       0.00047728 
C       5.66710000      11.27310000      10.07460000      -0.00013822       0.00034045      -0.00050383 
C       4.90060000       8.91410000      11.51510000       0.00023593      -0.00344002       0.00119399 
C       5.09710000       7.67380000      12.23360000      -0.00052991       0.00254793      -0.00155020 
C       5.09700000      10.15430000       9.35610000       0.00034646       0.00037743      -0.00013900 
C       4.90060000       8.91410000      10.07460000       0.00023593      -0.00344002      -0.00119399 
C       5.66720000       6.55500000      11.51510000      -0.00040760       0.00017333       0.00031634 
C       6.55510000       5.66710000      12.23360000      -0.00120083       0.00087706       0.00004761 
C       5.09710000       7.67380000       9.35610000      -0.00052991       0.00254793       0.00155020 
C       5.66720000       6.55500000      10.07460000      -0.00040760       0.00017333      -0.00031634 
C       7.67390000       5.09710000      11.51510000       0.00079295      -0.00061830      -0.00060398 
C       8.91410000       4.90070000      12.23360000       0.00299893      -0.00029858      -0.00116168 
C       6.55510000       5.66710000       9.35610000      -0.00120083       0.00087706      -0.00004761 
C       7.67390000       5.09710000      10.07460000       0.00079295      -0.00061830       0.00060398 
C      10.15440000       5.09710000      11.51510000      -0.00232232       0.00008587       0.00134945 
C      11.27320000       5.66720000      12.23360000       0.00022694      -0.00037861      -0.00009478 
C       8.91410000       4.90070000       9.35610000       0.00299893      -0.00029858       0.00116168 
C      10.15440000       5.09710000      10.07460000      -0.00232232       0.00008587      -0.00134945 
C      12.16110000       6.55510000      11.51510000       0.00012680       0.00136763       0.00099941 
C      12.73110000       7.67400000      12.23360000      -0.00026457      -0.00198507      -0.00072200 
C      11.27320000       5.66720000       9.35610000       0.00022694      -0.00037861       0.00009478 
C      12.16110000       6.55510000      10.07460000       0.00012680       0.00136763      -0.00099941 
C      12.73110000       7.67400000       9.35610000      -0.00026457      -0.00198507       0.00072200 
C      12.92750000       8.91420000      15.83310000       0.00045246      -0.00020891      -0.00024287 
C      12.73110000      10.15440000      16.55160000      -0.00045524       0.00064523      -0.00018352 
C      12.92750000       8.91420000      14.39260000       0.00045246      -0.00020891       0.00024287 
C      12.16100000      11.27320000      15.83310000      -0.00002164       0.00051599       0.00025576 
C      11.27310000      12.16110000      16.55160000      -0.00222740       0.00114186      -0.00155051 
C      12.73110000      10.15440000      13.67410000      -0.00045524       0.00064523       0.00018352 
C      12.16100000      11.27320000      14.39260000      -0.00002164       0.00051599      -0.00025576 
C      10.15420000      12.73120000      15.83310000       0.00315482      -0.00122905       0.00118664 
C       8.91400000      12.92760000      16.55160000      -0.00023249      -0.00008198       0.00021039 
C      11.27310000      12.16110000      13.67410000      -0.00222740       0.00114186       0.00155051 
C      10.15420000      12.73120000      14.39260000       0.00315482      -0.00122905      -0.00118664 
C       7.67380000      12.73110000      15.83310000      -0.00041936       0.00016046       0.00038440 
C       6.55500000      12.16100000      16.55160000      -0.00011570       0.00000729      -0.00047728 
C       8.91400000      12.92760000      13.67410000      -0.00023249      -0.00008198      -0.00021039 
C       7.67380000      12.73110000      14.39260000      -0.00041936       0.00016046      -0.00038440 
C       5.66710000      11.27310000      15.83310000      -0.00013822       0.00034045       0.00050383 
C       5.09700000      10.15430000      16.55160000       0.00034646       0.00037743       0.00013900 
C       6.55500000      12.16100000      13.67410000      -0.00011570       0.00000729       0.00047728 
C       5.66710000      11.27310000      14.39260000      -0.00013822       0.00034045      -0.00050383 
C       4.90060000       8.91410000      15.83310000       0.00023593      -0.00344002       0.00119399 
C       5.09710000       7.67380000      16.55160000      -0.00052991       0.00254793      -0.00155020 
C       5.09700000      10.15430000      13.67410000       0.00034646       0.00037743      -0.00013900 
C       4.90060000       8.91410000      14.39260000       0.00023593      -0.00344002      -0.00119399 
C       5.66720000       6.55500000      15.83310000      -0.00040760       0.00017333       0.00031634 
C       6.55510000       5.66710000      16.55160000      -0.00120083       0.00087706       0.00004761 
C       5.09710000       7.67380000      13.67410000      -0.00052991       0.00254793       0.00155020 
C       5.66720000       6.55500000      14.39260000      -0.00040760       0.00017333      -0.00031634 
C       7.67390000       5.09710000      15.83310000       0.00079295      -0.00061830      -0.00060398 
C       8.91410000       4.90070000      16.55160000       0.00299893      -0.00029858      -0.00116168 
C       6.55510000       5.66710000      13.67410000      -0.00120083       0.00087706      -0.00004761 
C       7.67390000       5.09710000      14.39260000       0.00079295      -0.00061830       0.00060398 
C      10.15440000       5.09710000      15.83310000      -0.00232232       0.00008587       0.00134945 
C      11.27320000       5.66720000      16.55160000       0.00022694      -0.00037861      -0.00009478 
C       8.91410000       4.90070000      13.67410000       0.00299893      -0.00029858       0.00116168 
C      10.15440000       5.09710000      14.39260000      -0.00232232       0.00008587      -0.00134945 
C      12.16110000       6.55510000      15.83310000       0.00012680       0.00136763       0.00099941 
C      12.73110000       7.67400000      16.55160000      -0.00026457      -0.00198507      -0.00072200 
C      11.27320000       5.66720000      13.67410000       0.00022694      -0.00037861       0.00009478 
C      12.16110000       6.55510000      14.39260000       0.00012680       0.00136763      -0.00099941 
C      12.73110000       7.67400000      13.67410000      -0.00026457      -0.00198507       0.00072200 
C      12.92750000       8.91420000      20.15110000       0.00047456      -0.00006940       0.00000398 
C      12.73110000      10.15440000      20.86960000      -0.00045524       0.00064523      -0.00018352 
C      12.92750000       8.91420000      18.71060000       0.00045246      -0.00020891       0.00024287 
C      12.16100000      11.27320000      20.15110000      -0.00002164       0.00051599       0.00025576 
C      11.27310000      12.16110000      20.86960000      -0.00222740       0.00114186      -0.00155051 
C      12.73110000      10.15440000      17.99210000      -0.00045524       0.00064523       0.00018352 
C      12.16100000      11.27320000      18.71060000      -0.00002164       0.00051599      -0.00025576 
C      10.15420000      12.73120000      20.15110000       0.00315482      -0.00122905       0.00118664 
C       8.91400000      12.92760000      20.86960000      -0.00023249      -0.00008198       0.00021039 
C      11.27310000      12.16110000      17.99210000      -0.00222740       0.00114186       0.00155051 
C      10.15420000      12.73120000      18.71060000       0.00315482      -0.00122905      -0.00118664 
C       7.67380000      12.73110000      20.15110000      -0.00041936       0.00016046       0.00038440 
C       6.55500000      12.16100000      20.86960000      -0.00011570       0.00000729      -0.00047728 
C       8.91400000      12.92760000      17.99210000      -0.00023249      -0.00008198      -0.00021039 
C       7.67380000      12.73110000      18.71060000      -0.00041936       0.00016046      -0.00038440 
C       5.66710000      11.27310000      20.15110000      -0.00013822       0.00034045       0.00050383 
C       5.09700000      10.15430000      20.86960000       0.00034646       0.00037743       0.00013900 
C       6.55500000      12.16100000      17.99210000      -0.00011570       0.00000729       0.00047728 
C       5.66710000      11.27310000      18.71060000      -0.00013822       0.00034045      -0.00050383 
C       4.90060000       8.91410000      20.15110000       0.00023593      -0.00344002       0.00119399 
C       5.09710000       7.67380000      20.86960000      -0.00052991       0.00254793      -0.00155020 
C       5.09700000      10.15430000      17.99210000       0.00034646       0.00037743      -0.00013900 
C       4.90060000       8.91410000      18.71060000       0.00023593      -0.00344002      -0.00119399 
C       5.66720000       6.55500000      20.15110000      -0.00040760       0.00017333       0.00031634 
C       6.55510000       5.66710000      20.86960000      -0.00120083       0.00087706       0.00004761 
C       5.09710000       7.67380000      17.99210000      -0.00052991       0.00254793       0.00155020 
C       5.66720000       6.55500000      18.71060000      -0.00040760       0.00017333      -0.00031634 
C       7.67390000       5.09710000      20.15110000       0.00079295      -0.00061830      -0.00060398 
C       8.91410000       4.90070000      20.86960000       0.00299893      -0.00029858      -0.00116168 
C       6.55510000       5.66710000      17.99210000      -0.00120083       0.00087706      -0.00004761 
C       7.67390000       5.09710000      18.71060000       0.00079295      -0.00061830       0.00060398 
C      10.15440000       5.09710000      20.15110000      -0.00232232       0.00008587       0.00134945 
C      11.27320000       5.66720000      20.86960000       0.00022694      -0.00037861      -0.00009478 
C       8.91410000       4.90070000      17.99210000       0.00299893      -0.00029858       0.00116168 
C      10.15440000       5.09710000      18.71060000      -0.00232232       0.00008587      -0.00134945 
C      12.16110000       6.55510000      20.15110000       0.00006269       0.00124178       0.00124626 
C      12.73110000       7.67400000      20.86960000      -0.00009831      -0.00203916       0.00236677 
C      11.27320000       5.66720000      17.99210000       0.00022694      -0.00037861       0.00009478 
C      12.16110000       6.55510000      18.71060000       0.00012680       0.00136763      -0.00099941 
C      12.73110000       7.67400000      17.99210000      -0.00026457      -0.00198507       0.00072200 
