structures/replicated_atoms.lmp (written by ASE) 

54 	 atoms 
1  atom types
0.0       11.52301210621598  xlo xhi
0.0      9.9792212120986665  ylo yhi
0.0      9.4084999867141406  zlo zhi
      5.761506053107988      5.7615060531079898      3.3264070706995534  xy xz yz


Atoms 

     1   1                       0                       0                       0
     2   1      1.9205020177026633      1.1088023568998517     0.78404166555951149
     3   1      13.443514123918643      1.1088023568998513      3.1361666622380469
     4   1      3.8410040354053261      2.2176047137997026      3.9202083277975581
     5   1      15.364016141621306      2.2176047137997026      6.2723333244760937
     6   1      5.7615060531079898      3.3264070706995543      7.0563749900356072
     7   1      7.6820080708106531      6.6528141413991086      9.4084999867141406
     8   1      3.8410040354053256       4.435209427599407     0.78404166555951171
     9   1      15.364016141621306      4.4352094275994078      3.1361666622380473
    10   1      5.7615060531079889      5.5440117844992587      3.9202083277975595
    11   1      5.7615060531079889      5.5440117844992578      6.2723333244760919
    12   1      7.6820080708106522      6.6528141413991095      7.0563749900356063
    13   1      9.6025100885133163      9.9792212120986648      9.4084999867141406
    14   1      5.7615060531079898      7.7616164982989639     0.78404166555951116
    15   1      17.284518159323969      7.7616164982989622      3.1361666622380469
    16   1      7.6820080708106522      8.8704188551988139      3.9202083277975595
    17   1      19.205020177026633      8.8704188551988157      6.2723333244760946
    18   1      9.6025100885133163      9.9792212120986648      7.0563749900356072
    19   1      15.364016141621304      13.305628282798219      9.4084999867141388
    20   1      5.7615060531079889      1.1088023568998513     0.78404166555951127
    21   1      11.523012106215978      11.088023568998517       3.136166662238046
    22   1      7.6820080708106522      2.2176047137997017      3.9202083277975581
    23   1      7.6820080708106531      2.2176047137997026      6.2723333244760919
    24   1      9.6025100885133146      3.3264070706995534      7.0563749900356045
    25   1       11.52301210621598      6.6528141413991086      9.4084999867141388
    26   1      7.6820080708106513       4.435209427599407     0.78404166555951027
    27   1      7.6820080708106531       4.435209427599407       3.136166662238046
    28   1      9.6025100885133163      5.5440117844992587      3.9202083277975595
    29   1      9.6025100885133163      5.5440117844992578      6.2723333244760919
    30   1      11.523012106215978      6.6528141413991095      7.0563749900356036
    31   1      13.443514123918641      9.9792212120986648      9.4084999867141406
    32   1      9.6025100885133146      7.7616164982989631     0.78404166555951116
    33   1      9.6025100885133146      7.7616164982989613       3.136166662238046
    34   1      11.523012106215978      8.8704188551988139      3.9202083277975595
    35   1      11.523012106215978      8.8704188551988139      6.2723333244760919
    36   1      13.443514123918639      9.9792212120986648      7.0563749900356054
    37   1      19.205020177026629      13.305628282798219      9.4084999867141388
    38   1      9.6025100885133163      1.1088023568998511     0.78404166555951027
    39   1      15.364016141621303      11.088023568998517       3.136166662238046
    40   1      11.523012106215978      2.2176047137997017      3.9202083277975572
    41   1      17.284518159323966      12.196825925898368      6.2723333244760919
    42   1      13.443514123918643      3.3264070706995534      7.0563749900356054
    43   1      15.364016141621306      6.6528141413991086      9.4084999867141388
    44   1      11.523012106215978      4.4352094275994061     0.78404166555951027
    45   1      11.523012106215978       4.435209427599407       3.136166662238046
    46   1      13.443514123918641      5.5440117844992578      3.9202083277975572
    47   1      13.443514123918641       5.544011784499256      6.2723333244760919
    48   1      15.364016141621303      6.6528141413991086      7.0563749900356054
    49   1      17.284518159323969      9.9792212120986648      9.4084999867141388
    50   1      13.443514123918643      7.7616164982989631     0.78404166555951116
    51   1      13.443514123918641      7.7616164982989622      3.1361666622380451
    52   1      15.364016141621304      8.8704188551988139      3.9202083277975563
    53   1      15.364016141621306      8.8704188551988139      6.2723333244760919
    54   1      17.284518159323969      9.9792212120986665      7.0563749900356063
