250
Lattice="0.0 8.834999999999999 8.834999999999999 8.834999999999999 0.0 8.834999999999999 8.834999999999999 8.834999999999999 0.0" Properties=species:S:1:pos:R:3:forces:R:3 energy=-825.389946036411 pbc="T T T"
C        0.00000000       0.00000000       0.00000000       0.00182381       0.00182381       0.00888694
C        0.88350000       0.88350000       0.88350000       0.00000000       0.00000000      -0.04539080
C        1.76700000       1.76700000       0.00000000      -0.00182381      -0.00182381       0.00888694
C        2.65050000       2.65050000       0.88350000       0.00104169       0.00104169      -0.00071943
C        3.53400000       3.53400000       0.00000000       0.00022425       0.00022425       0.00009639
C        4.41750000       4.41750000       0.88350000       0.00000437       0.00000437      -0.00001382
C        5.30100000       5.30100000       0.00000000      -0.00000000      -0.00000000      -0.00000143
C        6.18450000       6.18450000       0.88350000      -0.00000437      -0.00000437      -0.00001382
C        7.06800000       7.06800000       0.00000000      -0.00022425      -0.00022425       0.00009639
C        7.95150000       7.95150000       0.88350000      -0.00104169      -0.00104169      -0.00071943
C        1.76700000       0.00000000       1.76700000       0.00184797      -0.00184797       0.00891512
C        2.65050000       0.88350000       2.65050000       0.00157610      -0.00104188       0.00138583
C        3.53400000       1.76700000       1.76700000       0.00000929      -0.00007522       0.00008680
C        4.41750000       2.65050000       2.65050000      -0.00000132       0.00002583       0.00000860
C        5.30100000       3.53400000       1.76700000       0.00001254      -0.00000592       0.00000611
C        6.18450000       4.41750000       2.65050000       0.00000000      -0.00000000      -0.00000041
C        7.06800000       5.30100000       1.76700000       0.00000592      -0.00001254       0.00000611
C        7.95150000       6.18450000       2.65050000      -0.00002583       0.00000132       0.00000860
C        8.83500000       7.06800000       1.76700000       0.00007522      -0.00000929       0.00008680
C        9.71850000       7.95150000       2.65050000       0.00104188      -0.00157610       0.00138583
C        3.53400000       0.00000000       3.53400000       0.00000824       0.00022423      -0.00005135
C        4.41750000       0.88350000       4.41750000       0.00006667      -0.00000438       0.00005863
C        5.30100000       1.76700000       3.53400000       0.00000334      -0.00000591       0.00000387
C        6.18450000       2.65050000       4.41750000      -0.00000105      -0.00000007      -0.00000105
C        7.06800000       3.53400000       3.53400000      -0.00000000       0.00000000       0.00000000
C        7.95150000       4.41750000       4.41750000       0.00000007       0.00000105      -0.00000105
C        8.83500000       5.30100000       3.53400000       0.00000591      -0.00000334       0.00000387
C        9.71850000       6.18450000       4.41750000       0.00000438      -0.00006667       0.00005863
C       10.60200000       7.06800000       3.53400000      -0.00022423      -0.00000824      -0.00005135
C       11.48550000       7.95150000       4.41750000      -0.00000136       0.00000136       0.00002823
C        5.30100000       0.00000000       5.30100000      -0.00000220      -0.00000000      -0.00000220
C        6.18450000       0.88350000       6.18450000       0.00006668       0.00000439       0.00005864
C        7.06800000       1.76700000       5.30100000       0.00000331      -0.00001254       0.00001042
C        7.95150000       2.65050000       6.18450000       0.00002059      -0.00002059       0.00002821
C        8.83500000       3.53400000       5.30100000       0.00001254      -0.00000331       0.00001042
C        9.71850000       4.41750000       6.18450000      -0.00000439      -0.00006668       0.00005864
C       10.60200000       5.30100000       5.30100000       0.00000000       0.00000220      -0.00000220
C       11.48550000       6.18450000       6.18450000       0.00000000       0.00000105      -0.00000106
C       12.36900000       7.06800000       5.30100000      -0.00000262       0.00000262      -0.00000238
C       13.25250000       7.95150000       6.18450000      -0.00000105      -0.00000000      -0.00000106
C        7.06800000       0.00000000       7.06800000       0.00000741      -0.00022418      -0.00005195
C        7.95150000       0.88350000       7.95150000       0.00157155       0.00104169       0.00138181
C        8.83500000       1.76700000       7.06800000       0.00000836      -0.00000836      -0.00001547
C        9.71850000       2.65050000       7.95150000      -0.00104169      -0.00157155       0.00138181
C       10.60200000       3.53400000       7.06800000       0.00022418      -0.00000741      -0.00005195
C       11.48550000       4.41750000       7.95150000      -0.00002582      -0.00002042       0.00000863
C       12.36900000       5.30100000       7.06800000       0.00000182       0.00000262      -0.00000252
C       13.25250000       6.18450000       7.95150000       0.00000007      -0.00000007      -0.00000041
C       14.13600000       7.06800000       7.06800000      -0.00000262      -0.00000182      -0.00000252
C       15.01950000       7.95150000       7.95150000       0.00002042       0.00002582       0.00000863
C        0.00000000       1.76700000       1.76700000      -0.00184797       0.00184797       0.00891512
C        0.88350000       2.65050000       2.65050000      -0.00104188       0.00157610       0.00138583
C        1.76700000       3.53400000       1.76700000      -0.00007522       0.00000929       0.00008680
C        2.65050000       4.41750000       2.65050000       0.00002583      -0.00000132       0.00000860
C        3.53400000       5.30100000       1.76700000      -0.00000592       0.00001254       0.00000611
C        4.41750000       6.18450000       2.65050000      -0.00000000       0.00000000      -0.00000041
C        5.30100000       7.06800000       1.76700000      -0.00001254       0.00000592       0.00000611
C        6.18450000       7.95150000       2.65050000       0.00000132      -0.00002583       0.00000860
C        7.06800000       8.83500000       1.76700000      -0.00000929       0.00007522       0.00008680
C        7.95150000       9.71850000       2.65050000      -0.00157610       0.00104188       0.00138583
C        1.76700000       1.76700000       3.53400000       0.00000928       0.00000928      -0.00001460
C        2.65050000       2.65050000       4.41750000       0.00002030       0.00002030       0.00002821
C        3.53400000       3.53400000       3.53400000      -0.00001718      -0.00001718      -0.00002226
C        4.41750000       4.41750000       4.41750000      -0.00000124      -0.00000124      -0.00000139
C        5.30100000       5.30100000       3.53400000      -0.00000000      -0.00000000       0.00000000
C        6.18450000       6.18450000       4.41750000       0.00000124       0.00000124      -0.00000139
C        7.06800000       7.06800000       3.53400000       0.00001718       0.00001718      -0.00002226
C        7.95150000       7.95150000       4.41750000      -0.00002030      -0.00002030       0.00002821
C        8.83500000       8.83500000       3.53400000      -0.00000928      -0.00000928      -0.00001460
C        9.71850000       9.71850000       4.41750000       0.00000000       0.00000000       0.00028034
C        3.53400000       1.76700000       5.30100000       0.00000336       0.00001256       0.00001043
C        4.41750000       2.65050000       6.18450000      -0.00000105       0.00000007      -0.00000105
C        5.30100000       3.53400000       5.30100000      -0.00000000       0.00000000      -0.00000000
C        6.18450000       4.41750000       6.18450000      -0.00000124       0.00000124      -0.00000139
C        7.06800000       5.30100000       5.30100000       0.00000000      -0.00000000      -0.00000000
C        7.95150000       6.18450000       6.18450000      -0.00000007       0.00000105      -0.00000105
C        8.83500000       7.06800000       5.30100000      -0.00001256      -0.00000336       0.00001043
C        9.71850000       7.95150000       6.18450000       0.00000128      -0.00000085       0.00000403
C       10.60200000       8.83500000       5.30100000       0.00001258      -0.00001258       0.00001549
C       11.48550000       9.71850000       6.18450000       0.00000085      -0.00000128       0.00000403
C        5.30100000       1.76700000       7.06800000       0.00000333       0.00000592       0.00000387
C        6.18450000       2.65050000       7.95150000      -0.00000134      -0.00002582       0.00000862
C        7.06800000       3.53400000       7.06800000      -0.00001716       0.00001716      -0.00002226
C        7.95150000       4.41750000       7.95150000       0.00002582       0.00000134       0.00000862
C        8.83500000       5.30100000       7.06800000      -0.00000592      -0.00000333       0.00000387
C        9.71850000       6.18450000       7.95150000       0.00000040      -0.00000085       0.00000059
C       10.60200000       7.06800000       7.06800000      -0.00000009       0.00000052      -0.00000052
C       11.48550000       7.95150000       7.95150000      -0.00000000       0.00000000      -0.00000000
C       12.36900000       8.83500000       7.06800000      -0.00000052       0.00000009      -0.00000052
C       13.25250000       9.71850000       7.95150000       0.00000085      -0.00000040       0.00000059
C        7.06800000       1.76700000       8.83500000       0.00000835       0.00007528       0.00008661
C        7.95150000       2.65050000       9.71850000       0.00104187      -0.00104187      -0.00072047
C        8.83500000       3.53400000       8.83500000      -0.00007528      -0.00000835       0.00008661
C        9.71850000       4.41750000       9.71850000      -0.00000000      -0.00000043      -0.00011760
C       10.60200000       5.30100000       8.83500000      -0.00001270      -0.00001259      -0.00000042
C       11.48550000       6.18450000       9.71850000      -0.00000040       0.00000126       0.00000580
C       12.36900000       7.06800000       8.83500000      -0.00000009       0.00000009      -0.00000000
C       13.25250000       7.95150000       9.71850000      -0.00000126       0.00000040       0.00000580
C       14.13600000       8.83500000       8.83500000       0.00001259       0.00001270      -0.00000042
C       15.01950000       9.71850000       9.71850000       0.00000043       0.00000000      -0.00011760
C        0.00000000       3.53400000       3.53400000       0.00022423       0.00000824      -0.00005135
C        0.88350000       4.41750000       4.41750000      -0.00000438       0.00006667       0.00005863
C        1.76700000       5.30100000       3.53400000      -0.00000591       0.00000334       0.00000387
C        2.65050000       6.18450000       4.41750000      -0.00000007      -0.00000105      -0.00000105
C        3.53400000       7.06800000       3.53400000       0.00000000      -0.00000000       0.00000000
C        4.41750000       7.95150000       4.41750000       0.00000105       0.00000007      -0.00000105
C        5.30100000       8.83500000       3.53400000      -0.00000334       0.00000591       0.00000387
C        6.18450000       9.71850000       4.41750000      -0.00006667       0.00000438       0.00005863
C        7.06800000      10.60200000       3.53400000      -0.00000824      -0.00022423      -0.00005135
C        7.95150000      11.48550000       4.41750000       0.00000136      -0.00000136       0.00002823
C        1.76700000       3.53400000       5.30100000       0.00001256       0.00000336       0.00001043
C        2.65050000       4.41750000       6.18450000       0.00000007      -0.00000105      -0.00000105
C        3.53400000       5.30100000       5.30100000       0.00000000      -0.00000000      -0.00000000
C        4.41750000       6.18450000       6.18450000       0.00000124      -0.00000124      -0.00000139
C        5.30100000       7.06800000       5.30100000      -0.00000000       0.00000000      -0.00000000
C        6.18450000       7.95150000       6.18450000       0.00000105      -0.00000007      -0.00000105
C        7.06800000       8.83500000       5.30100000      -0.00000336      -0.00001256       0.00001043
C        7.95150000       9.71850000       6.18450000      -0.00000085       0.00000128       0.00000403
C        8.83500000      10.60200000       5.30100000      -0.00001258       0.00001258       0.00001549
C        9.71850000      11.48550000       6.18450000      -0.00000128       0.00000085       0.00000403
C        3.53400000       3.53400000       7.06800000       0.00000000       0.00000000      -0.00000000
C        4.41750000       4.41750000       7.95150000       0.00000000       0.00000000      -0.00000041
C        5.30100000       5.30100000       7.06800000      -0.00000000      -0.00000000       0.00000000
C        6.18450000       6.18450000       7.95150000      -0.00000000      -0.00000000      -0.00000041
C        7.06800000       7.06800000       7.06800000      -0.00000000       0.00000000       0.00000000
C        7.95150000       7.95150000       7.95150000       0.00000000       0.00000000       0.00000000
C        8.83500000       8.83500000       7.06800000       0.00000420       0.00000420      -0.00000310
C        9.71850000       9.71850000       7.95150000       0.00000000       0.00000000      -0.00000409
C       10.60200000      10.60200000       7.06800000      -0.00000420      -0.00000420      -0.00000310
C       11.48550000      11.48550000       7.95150000      -0.00000000      -0.00000000       0.00000000
C        5.30100000       3.53400000       8.83500000       0.00001256       0.00000591       0.00000612
C        6.18450000       4.41750000       9.71850000       0.00000441      -0.00000441      -0.00001383
C        7.06800000       5.30100000       8.83500000      -0.00000591      -0.00001256       0.00000612
C        7.95150000       6.18450000       9.71850000      -0.00000039      -0.00000127       0.00000580
C        8.83500000       7.06800000       8.83500000       0.00000048       0.00000419       0.00000004
C        9.71850000       7.95150000       9.71850000      -0.00000000       0.00000000      -0.00000001
C       10.60200000       8.83500000       8.83500000      -0.00000000       0.00000000      -0.00000000
C       11.48550000       9.71850000       9.71850000      -0.00000000       0.00000000      -0.00000001
C       12.36900000      10.60200000       8.83500000      -0.00000419      -0.00000048       0.00000004
C       13.25250000      11.48550000       9.71850000       0.00000127       0.00000039       0.00000580
C        7.06800000       3.53400000      10.60200000       0.00022415      -0.00022415       0.00009659
C        7.95150000       4.41750000      11.48550000      -0.00002583       0.00002047       0.00000858
C        8.83500000       5.30100000      10.60200000      -0.00001270       0.00001249      -0.00000044
C        9.71850000       6.18450000      11.48550000       0.00000039       0.00000085       0.00000059
C       10.60200000       7.06800000      10.60200000       0.00000048      -0.00000419       0.00000004
C       11.48550000       7.95150000      11.48550000      -0.00000000       0.00000000      -0.00000000
C       12.36900000       8.83500000      10.60200000       0.00000419      -0.00000048       0.00000004
C       13.25250000       9.71850000      11.48550000      -0.00000085      -0.00000039       0.00000059
C       14.13600000      10.60200000      10.60200000      -0.00001249       0.00001270      -0.00000044
C       15.01950000      11.48550000      11.48550000      -0.00002047       0.00002583       0.00000858
C        0.00000000       5.30100000       5.30100000      -0.00000000      -0.00000220      -0.00000220
C        0.88350000       6.18450000       6.18450000       0.00000439       0.00006668       0.00005864
C        1.76700000       7.06800000       5.30100000      -0.00001254       0.00000331       0.00001042
C        2.65050000       7.95150000       6.18450000      -0.00002059       0.00002059       0.00002821
C        3.53400000       8.83500000       5.30100000      -0.00000331       0.00001254       0.00001042
C        4.41750000       9.71850000       6.18450000      -0.00006668      -0.00000439       0.00005864
C        5.30100000      10.60200000       5.30100000       0.00000220       0.00000000      -0.00000220
C        6.18450000      11.48550000       6.18450000       0.00000105       0.00000000      -0.00000106
C        7.06800000      12.36900000       5.30100000       0.00000262      -0.00000262      -0.00000238
C        7.95150000      13.25250000       6.18450000      -0.00000000      -0.00000105      -0.00000106
C        1.76700000       5.30100000       7.06800000       0.00000592       0.00000333       0.00000387
C        2.65050000       6.18450000       7.95150000      -0.00002582      -0.00000134       0.00000862
C        3.53400000       7.06800000       7.06800000       0.00001716      -0.00001716      -0.00002226
C        4.41750000       7.95150000       7.95150000       0.00000134       0.00002582       0.00000862
C        5.30100000       8.83500000       7.06800000      -0.00000333      -0.00000592       0.00000387
C        6.18450000       9.71850000       7.95150000      -0.00000085       0.00000040       0.00000059
C        7.06800000      10.60200000       7.06800000       0.00000052      -0.00000009      -0.00000052
C        7.95150000      11.48550000       7.95150000       0.00000000      -0.00000000       0.00000000
C        8.83500000      12.36900000       7.06800000       0.00000009      -0.00000052      -0.00000052
C        9.71850000      13.25250000       7.95150000      -0.00000040       0.00000085       0.00000059
C        3.53400000       5.30100000       8.83500000       0.00000591       0.00001256       0.00000612
C        4.41750000       6.18450000       9.71850000      -0.00000441       0.00000441      -0.00001383
C        5.30100000       7.06800000       8.83500000      -0.00001256      -0.00000591       0.00000612
C        6.18450000       7.95150000       9.71850000      -0.00000127      -0.00000039       0.00000580
C        7.06800000       8.83500000       8.83500000       0.00000419       0.00000048       0.00000004
C        7.95150000       9.71850000       9.71850000       0.00000000      -0.00000000      -0.00000001
C        8.83500000      10.60200000       8.83500000       0.00000000      -0.00000000      -0.00000000
C        9.71850000      11.48550000       9.71850000       0.00000000      -0.00000000      -0.00000001
C       10.60200000      12.36900000       8.83500000      -0.00000048      -0.00000419       0.00000004
C       11.48550000      13.25250000       9.71850000       0.00000039       0.00000127       0.00000580
C        5.30100000       5.30100000      10.60200000       0.00000000      -0.00000000      -0.00000143
C        6.18450000       6.18450000      11.48550000       0.00000007       0.00000007      -0.00000041
C        7.06800000       7.06800000      10.60200000      -0.00000009      -0.00000009       0.00000000
C        7.95150000       7.95150000      11.48550000       0.00000000       0.00000000      -0.00000000
C        8.83500000       8.83500000      10.60200000      -0.00000000      -0.00000000      -0.00000000
C        9.71850000       9.71850000      11.48550000      -0.00000000      -0.00000000      -0.00000407
C       10.60200000      10.60200000      10.60200000      -0.00000000      -0.00000000      -0.00000000
C       11.48550000      11.48550000      11.48550000       0.00000000      -0.00000000      -0.00000000
C       12.36900000      12.36900000      10.60200000       0.00000009       0.00000009       0.00000000
C       13.25250000      13.25250000      11.48550000      -0.00000007      -0.00000007      -0.00000041
C        7.06800000       5.30100000      12.36900000       0.00000182      -0.00000262      -0.00000251
C        7.95150000       6.18450000      13.25250000       0.00000000      -0.00000106      -0.00000105
C        8.83500000       7.06800000      12.36900000      -0.00000009      -0.00000052      -0.00000052
C        9.71850000       7.95150000      13.25250000       0.00000125       0.00000085       0.00000399
C       10.60200000       8.83500000      12.36900000       0.00000418      -0.00000418      -0.00000312
C       11.48550000       9.71850000      13.25250000      -0.00000085      -0.00000125       0.00000399
C       12.36900000      10.60200000      12.36900000       0.00000052       0.00000009      -0.00000052
C       13.25250000      11.48550000      13.25250000       0.00000106      -0.00000000      -0.00000105
C       14.13600000      12.36900000      12.36900000       0.00000262      -0.00000182      -0.00000251
C       15.01950000      13.25250000      13.25250000       0.00000124      -0.00000124      -0.00000139
C        0.00000000       7.06800000       7.06800000      -0.00022418       0.00000741      -0.00005195
C        0.88350000       7.95150000       7.95150000       0.00104169       0.00157155       0.00138181
C        1.76700000       8.83500000       7.06800000      -0.00000836       0.00000836      -0.00001547
C        2.65050000       9.71850000       7.95150000      -0.00157155      -0.00104169       0.00138181
C        3.53400000      10.60200000       7.06800000      -0.00000741       0.00022418      -0.00005195
C        4.41750000      11.48550000       7.95150000      -0.00002042      -0.00002582       0.00000863
C        5.30100000      12.36900000       7.06800000       0.00000262       0.00000182      -0.00000252
C        6.18450000      13.25250000       7.95150000      -0.00000007       0.00000007      -0.00000041
C        7.06800000      14.13600000       7.06800000      -0.00000182      -0.00000262      -0.00000252
C        7.95150000      15.01950000       7.95150000       0.00002582       0.00002042       0.00000863
C        1.76700000       7.06800000       8.83500000       0.00007528       0.00000835       0.00008661
C        2.65050000       7.95150000       9.71850000      -0.00104187       0.00104187      -0.00072047
C        3.53400000       8.83500000       8.83500000      -0.00000835      -0.00007528       0.00008661
C        4.41750000       9.71850000       9.71850000      -0.00000043      -0.00000000      -0.00011760
C        5.30100000      10.60200000       8.83500000      -0.00001259      -0.00001270      -0.00000042
C        6.18450000      11.48550000       9.71850000       0.00000126      -0.00000040       0.00000580
C        7.06800000      12.36900000       8.83500000       0.00000009      -0.00000009      -0.00000000
C        7.95150000      13.25250000       9.71850000       0.00000040      -0.00000126       0.00000580
C        8.83500000      14.13600000       8.83500000       0.00001270       0.00001259      -0.00000042
C        9.71850000      15.01950000       9.71850000       0.00000000       0.00000043      -0.00011760
C        3.53400000       7.06800000      10.60200000      -0.00022415       0.00022415       0.00009659
C        4.41750000       7.95150000      11.48550000       0.00002047      -0.00002583       0.00000858
C        5.30100000       8.83500000      10.60200000       0.00001249      -0.00001270      -0.00000044
C        6.18450000       9.71850000      11.48550000       0.00000085       0.00000039       0.00000059
C        7.06800000      10.60200000      10.60200000      -0.00000419       0.00000048       0.00000004
C        7.95150000      11.48550000      11.48550000       0.00000000      -0.00000000      -0.00000000
C        8.83500000      12.36900000      10.60200000      -0.00000048       0.00000419       0.00000004
C        9.71850000      13.25250000      11.48550000      -0.00000039      -0.00000085       0.00000059
C       10.60200000      14.13600000      10.60200000       0.00001270      -0.00001249      -0.00000044
C       11.48550000      15.01950000      11.48550000       0.00002583      -0.00002047       0.00000858
C        5.30100000       7.06800000      12.36900000      -0.00000262       0.00000182      -0.00000251
C        6.18450000       7.95150000      13.25250000      -0.00000106       0.00000000      -0.00000105
C        7.06800000       8.83500000      12.36900000      -0.00000052      -0.00000009      -0.00000052
C        7.95150000       9.71850000      13.25250000       0.00000085       0.00000125       0.00000399
C        8.83500000      10.60200000      12.36900000      -0.00000418       0.00000418      -0.00000312
C        9.71850000      11.48550000      13.25250000      -0.00000125      -0.00000085       0.00000399
C       10.60200000      12.36900000      12.36900000       0.00000009       0.00000052      -0.00000052
C       11.48550000      13.25250000      13.25250000      -0.00000000       0.00000106      -0.00000105
C       12.36900000      14.13600000      12.36900000      -0.00000182       0.00000262      -0.00000251
C       13.25250000      15.01950000      13.25250000      -0.00000124       0.00000124      -0.00000139
C        7.06800000       7.06800000      14.13600000      -0.00000262      -0.00000262      -0.00000237
C        7.95150000       7.95150000      15.01950000      -0.00000129      -0.00000129       0.00002820
C        8.83500000       8.83500000      14.13600000       0.00001250       0.00001250       0.00001552
C        9.71850000       9.71850000      15.01950000       0.00000000       0.00000000       0.00028343
C       10.60200000      10.60200000      14.13600000      -0.00001250      -0.00001250       0.00001552
C       11.48550000      11.48550000      15.01950000       0.00000129       0.00000129       0.00002820
C       12.36900000      12.36900000      14.13600000       0.00000262       0.00000262      -0.00000237
C       13.25250000      13.25250000      15.01950000       0.00000124       0.00000124      -0.00000139
C       14.13600000      14.13600000      14.13600000       0.00000000       0.00000000       0.00000000
C       15.01950000      15.01950000      15.01950000      -0.00000124      -0.00000124      -0.00000139
