250
Lattice="0.0 8.834999999999999 8.834999999999999 8.834999999999999 0.0 8.834999999999999 8.834999999999999 8.834999999999999 0.0" Properties=species:S:1:pos:R:3:forces:R:3 energy=-825.3899233396257 pbc="T T T"
C        0.00000000       0.00000000       0.00000000      -0.00183081      -0.00183081      -0.00889286
C        0.88350000       0.88350000       0.88350000       0.00000124       0.00000124       0.04539219
C        1.76700000       1.76700000       0.00000000       0.00184797       0.00184797      -0.00891512
C        2.65050000       2.65050000       0.88350000      -0.00104311      -0.00104311       0.00072186
C        3.53400000       3.53400000       0.00000000      -0.00024131      -0.00024131      -0.00007433
C        4.41750000       4.41750000       0.88350000       0.00001618       0.00001618      -0.00001438
C        5.30100000       5.30100000       0.00000000       0.00000836       0.00000836       0.00001690
C        6.18450000       6.18450000       0.88350000       0.00000441       0.00000441      -0.00026960
C        7.06800000       7.06800000       0.00000000       0.00021580       0.00021580      -0.00008112
C        7.95150000       7.95150000       0.88350000       0.00102128       0.00102128       0.00069226
C        1.76700000       0.00000000       1.76700000      -0.00182381       0.00182381      -0.00888694
C        2.65050000       0.88350000       2.65050000      -0.00157031       0.00104044      -0.00138042
C        3.53400000       1.76700000       1.76700000      -0.00000835       0.00007528      -0.00008661
C        4.41750000       2.65050000       2.65050000       0.00000141      -0.00002687      -0.00000756
C        5.30100000       3.53400000       1.76700000      -0.00000002       0.00000923      -0.00001654
C        6.18450000       4.41750000       2.65050000      -0.00000126       0.00000085      -0.00000359
C        7.06800000       5.30100000       1.76700000      -0.00001841       0.00002506      -0.00002164
C        7.95150000       6.18450000       2.65050000       0.00002497      -0.00000008      -0.00001261
C        8.83500000       7.06800000       1.76700000      -0.00007859      -0.00000419      -0.00009704
C        9.71850000       7.95150000       2.65050000      -0.00104063       0.00157147      -0.00138076
C        3.53400000       0.00000000       3.53400000       0.00000977      -0.00024136       0.00007421
C        4.41750000       0.88350000       4.41750000      -0.00009251       0.00000308      -0.00006724
C        5.30100000       1.76700000       3.53400000       0.00000259       0.00000926      -0.00000774
C        6.18450000       2.65050000       4.41750000       0.00000066       0.00000092       0.00000047
C        7.06800000       3.53400000       3.53400000       0.00000009      -0.00000052       0.00000052
C        7.95150000       4.41750000       4.41750000      -0.00000007      -0.00000105       0.00000105
C        8.83500000       5.30100000       3.53400000      -0.00000540       0.00000324      -0.00000335
C        9.71850000       6.18450000       4.41750000      -0.00000524       0.00006708      -0.00005923
C       10.60200000       7.06800000       3.53400000       0.00022083       0.00000150       0.00004808
C       11.48550000       7.95150000       4.41750000       0.00000261       0.00002454      -0.00003679
C        5.30100000       0.00000000       5.30100000       0.00007743       0.00000929      -0.00008460
C        6.18450000       0.88350000       6.18450000      -0.00006667      -0.00000481       0.00005897
C        7.06800000       1.76700000       5.30100000       0.00000934       0.00002505      -0.00000999
C        7.95150000       2.65050000       6.18450000      -0.00001991       0.00001903      -0.00003401
C        8.83500000       3.53400000       5.30100000      -0.00001248       0.00000327      -0.00001043
C        9.71850000       4.41750000       6.18450000       0.00000565       0.00006628      -0.00006443
C       10.60200000       5.30100000       5.30100000      -0.00001248      -0.00001491       0.00000264
C       11.48550000       6.18450000       6.18450000       0.00000042      -0.00000106       0.00011865
C       12.36900000       7.06800000       5.30100000      -0.00000667      -0.00007784      -0.00008443
C       13.25250000       7.95150000       6.18450000      -0.00104064       0.00104170       0.00072049
C        7.06800000       0.00000000       7.06800000       0.00006704       0.00021588      -0.00003527
C        7.95150000       0.88350000       7.95150000      -0.00160191      -0.00104054      -0.00139445
C        8.83500000       1.76700000       7.06800000      -0.00000336      -0.00000328       0.00000848
C        9.71850000       2.65050000       7.95150000       0.00104188       0.00157610      -0.00138542
C       10.60200000       3.53400000       7.06800000      -0.00021167       0.00000233       0.00004523
C       11.48550000       4.41750000       7.95150000       0.00002449       0.00004629      -0.00001720
C       12.36900000       5.30100000       7.06800000       0.00000653      -0.00007790      -0.00008410
C       13.25250000       6.18450000       7.95150000       0.00157147      -0.00104161      -0.00138141
C       14.13600000       7.06800000       7.06800000       0.00182643      -0.00182199      -0.00888443
C       15.01950000       7.95150000       7.95150000       0.00102121      -0.00159737      -0.00139039
C        0.00000000       1.76700000       1.76700000       0.00182381      -0.00182381      -0.00888694
C        0.88350000       2.65050000       2.65050000       0.00104044      -0.00157031      -0.00138042
C        1.76700000       3.53400000       1.76700000       0.00007528      -0.00000835      -0.00008661
C        2.65050000       4.41750000       2.65050000      -0.00002687       0.00000141      -0.00000756
C        3.53400000       5.30100000       1.76700000       0.00000923      -0.00000002      -0.00001654
C        4.41750000       6.18450000       2.65050000       0.00000085      -0.00000126      -0.00000359
C        5.30100000       7.06800000       1.76700000       0.00002506      -0.00001841      -0.00002164
C        6.18450000       7.95150000       2.65050000      -0.00000008       0.00002497      -0.00001261
C        7.06800000       8.83500000       1.76700000      -0.00000419      -0.00007859      -0.00009704
C        7.95150000       9.71850000       2.65050000       0.00157147      -0.00104063      -0.00138076
C        1.76700000       1.76700000       3.53400000      -0.00000836      -0.00000836       0.00001547
C        2.65050000       2.65050000       4.41750000      -0.00002059      -0.00002059      -0.00002780
C        3.53400000       3.53400000       3.53400000       0.00001716       0.00001716       0.00002226
C        4.41750000       4.41750000       4.41750000       0.00000124       0.00000124       0.00000139
C        5.30100000       5.30100000       3.53400000      -0.00000418      -0.00000418       0.00000312
C        6.18450000       6.18450000       4.41750000      -0.00000124      -0.00000124       0.00000545
C        7.06800000       7.06800000       3.53400000      -0.00001298      -0.00001298       0.00002538
C        7.95150000       7.95150000       4.41750000       0.00002059       0.00002059      -0.00002821
C        8.83500000       8.83500000       3.53400000       0.00000836       0.00000836       0.00001547
C        9.71850000       9.71850000       4.41750000      -0.00000000      -0.00000000      -0.00028302
C        3.53400000       1.76700000       5.30100000       0.00000261       0.00000001      -0.00001653
C        4.41750000       2.65050000       6.18450000       0.00000145       0.00000119      -0.00000475
C        5.30100000       3.53400000       5.30100000      -0.00000048      -0.00000419      -0.00000004
C        6.18450000       4.41750000       6.18450000       0.00000124      -0.00000124       0.00000140
C        7.06800000       5.30100000       5.30100000       0.00000000      -0.00000000      -0.00000000
C        7.95150000       6.18450000       6.18450000       0.00000007      -0.00000105       0.00000106
C        8.83500000       7.06800000       5.30100000       0.00001673       0.00000379      -0.00001046
C        9.71850000       7.95150000       6.18450000      -0.00000252       0.00000045      -0.00000980
C       10.60200000       8.83500000       5.30100000      -0.00002505       0.00000658      -0.00002164
C       11.48550000       9.71850000       6.18450000      -0.00000521       0.00000562       0.00000983
C        5.30100000       1.76700000       7.06800000       0.00000935      -0.00001851      -0.00000345
C        6.18450000       2.65050000       7.95150000       0.00000092       0.00002498      -0.00000919
C        7.06800000       3.53400000       7.06800000       0.00001670      -0.00001299       0.00002222
C        7.95150000       4.41750000       7.95150000      -0.00002583      -0.00000132      -0.00000860
C        8.83500000       5.30100000       7.06800000       0.00000172       0.00000382      -0.00000391
C        9.71850000       6.18450000       7.95150000       0.00000046       0.00000124      -0.00000117
C       10.60200000       7.06800000       7.06800000       0.00001268      -0.00001321       0.00000094
C       11.48550000       7.95150000       7.95150000       0.00002042      -0.00002582      -0.00000863
C       12.36900000       8.83500000       7.06800000      -0.00022373       0.00022416      -0.00009588
C       13.25250000       9.71850000       7.95150000       0.00002497      -0.00002003      -0.00000922
C        7.06800000       1.76700000       8.83500000      -0.00000337      -0.00007855      -0.00009067
C        7.95150000       2.65050000       9.71850000      -0.00104162       0.00104275       0.00072049
C        8.83500000       3.53400000       8.83500000       0.00007522       0.00000929      -0.00008680
C        9.71850000       4.41750000       9.71850000      -0.00000105      -0.00000050       0.00011865
C       10.60200000       5.30100000       8.83500000       0.00001603       0.00000657      -0.00000343
C       11.48550000       6.18450000       9.71850000       0.00006708      -0.00000566      -0.00006444
C       12.36900000       7.06800000       8.83500000       0.00000750       0.00022409       0.00005195
C       13.25250000       7.95150000       9.71850000      -0.00000003       0.00000090      -0.00003400
C       14.13600000       8.83500000       8.83500000      -0.00023666      -0.00002011       0.00005239
C       15.01950000       9.71850000       9.71850000       0.00000482      -0.00006668       0.00005896
C        0.00000000       3.53400000       3.53400000      -0.00024136       0.00000977       0.00007421
C        0.88350000       4.41750000       4.41750000       0.00000308      -0.00009251      -0.00006724
C        1.76700000       5.30100000       3.53400000       0.00000926       0.00000259      -0.00000774
C        2.65050000       6.18450000       4.41750000       0.00000092       0.00000066       0.00000047
C        3.53400000       7.06800000       3.53400000      -0.00000052       0.00000009       0.00000052
C        4.41750000       7.95150000       4.41750000      -0.00000105      -0.00000007       0.00000105
C        5.30100000       8.83500000       3.53400000       0.00000324      -0.00000540      -0.00000335
C        6.18450000       9.71850000       4.41750000       0.00006708      -0.00000524      -0.00005923
C        7.06800000      10.60200000       3.53400000       0.00000150       0.00022083       0.00004808
C        7.95150000      11.48550000       4.41750000       0.00002454       0.00000261      -0.00003679
C        1.76700000       3.53400000       5.30100000       0.00000001       0.00000261      -0.00001653
C        2.65050000       4.41750000       6.18450000       0.00000119       0.00000145      -0.00000475
C        3.53400000       5.30100000       5.30100000      -0.00000419      -0.00000048      -0.00000004
C        4.41750000       6.18450000       6.18450000      -0.00000124       0.00000124       0.00000140
C        5.30100000       7.06800000       5.30100000      -0.00000000       0.00000000      -0.00000000
C        6.18450000       7.95150000       6.18450000      -0.00000105       0.00000007       0.00000106
C        7.06800000       8.83500000       5.30100000       0.00000379       0.00001673      -0.00001046
C        7.95150000       9.71850000       6.18450000       0.00000045      -0.00000252      -0.00000980
C        8.83500000      10.60200000       5.30100000       0.00000658      -0.00002505      -0.00002164
C        9.71850000      11.48550000       6.18450000       0.00000562      -0.00000521       0.00000983
C        3.53400000       3.53400000       7.06800000       0.00000009       0.00000009       0.00000000
C        4.41750000       4.41750000       7.95150000      -0.00000000      -0.00000000       0.00000041
C        5.30100000       5.30100000       7.06800000      -0.00000000      -0.00000000       0.00000000
C        6.18450000       6.18450000       7.95150000       0.00000000       0.00000000       0.00000450
C        7.06800000       7.06800000       7.06800000      -0.00000000       0.00000000       0.00000000
C        7.95150000       7.95150000       7.95150000       0.00000000       0.00000000       0.00000000
C        8.83500000       8.83500000       7.06800000      -0.00000427      -0.00000427       0.00000312
C        9.71850000       9.71850000       7.95150000       0.00000007       0.00000007       0.00000447
C       10.60200000      10.60200000       7.06800000       0.00000418       0.00000418       0.00000455
C       11.48550000      11.48550000       7.95150000      -0.00000007      -0.00000007       0.00000041
C        5.30100000       3.53400000       8.83500000      -0.00001246      -0.00000540      -0.00000560
C        6.18450000       4.41750000       9.71850000      -0.00000565       0.00000351       0.00000979
C        7.06800000       5.30100000       8.83500000       0.00000172       0.00001675      -0.00000301
C        7.95150000       6.18450000       9.71850000       0.00000125       0.00000254      -0.00000984
C        8.83500000       7.06800000       8.83500000      -0.00000100      -0.00000428       0.00000048
C        9.71850000       7.95150000       9.71850000      -0.00000105       0.00000000       0.00000106
C       10.60200000       8.83500000       8.83500000      -0.00000262       0.00000182       0.00000252
C       11.48550000       9.71850000       9.71850000      -0.00000124       0.00000124       0.00000139
C       12.36900000      10.60200000       8.83500000       0.00000238       0.00000310       0.00000248
C       13.25250000      11.48550000       9.71850000      -0.00000127       0.00000066      -0.00000475
C        7.06800000       3.53400000      10.60200000      -0.00021169       0.00022089      -0.00010682
C        7.95150000       4.41750000      11.48550000       0.00004611      -0.00004071      -0.00003685
C        8.83500000       5.30100000      10.60200000       0.00001606      -0.00002516      -0.00001001
C        9.71850000       6.18450000      11.48550000       0.00006627       0.00000353      -0.00005921
C       10.60200000       7.06800000      10.60200000      -0.00000268       0.00000419       0.00000216
C       11.48550000       7.95150000      11.48550000      -0.00000106      -0.00000000       0.00000105
C       12.36900000       8.83500000      10.60200000      -0.00000681       0.00000310       0.00000233
C       13.25250000       9.71850000      11.48550000       0.00000086       0.00000145       0.00000047
C       14.13600000      10.60200000      10.60200000       0.00001259      -0.00001049       0.00000263
C       15.01950000      11.48550000      11.48550000       0.00001603      -0.00009248      -0.00006726
C        0.00000000       5.30100000       5.30100000       0.00000929       0.00007743      -0.00008460
C        0.88350000       6.18450000       6.18450000      -0.00000481      -0.00006667       0.00005897
C        1.76700000       7.06800000       5.30100000       0.00002505       0.00000934      -0.00000999
C        2.65050000       7.95150000       6.18450000       0.00001903      -0.00001991      -0.00003401
C        3.53400000       8.83500000       5.30100000       0.00000327      -0.00001248      -0.00001043
C        4.41750000       9.71850000       6.18450000       0.00006628       0.00000565      -0.00006443
C        5.30100000      10.60200000       5.30100000      -0.00001491      -0.00001248       0.00000264
C        6.18450000      11.48550000       6.18450000      -0.00000106       0.00000042       0.00011865
C        7.06800000      12.36900000       5.30100000      -0.00007784      -0.00000667      -0.00008443
C        7.95150000      13.25250000       6.18450000       0.00104170      -0.00104064       0.00072049
C        1.76700000       5.30100000       7.06800000      -0.00001851       0.00000935      -0.00000345
C        2.65050000       6.18450000       7.95150000       0.00002498       0.00000092      -0.00000919
C        3.53400000       7.06800000       7.06800000      -0.00001299       0.00001670       0.00002222
C        4.41750000       7.95150000       7.95150000      -0.00000132      -0.00002583      -0.00000860
C        5.30100000       8.83500000       7.06800000       0.00000382       0.00000172      -0.00000391
C        6.18450000       9.71850000       7.95150000       0.00000124       0.00000046      -0.00000117
C        7.06800000      10.60200000       7.06800000      -0.00001321       0.00001268       0.00000094
C        7.95150000      11.48550000       7.95150000      -0.00002582       0.00002042      -0.00000863
C        8.83500000      12.36900000       7.06800000       0.00022416      -0.00022373      -0.00009588
C        9.71850000      13.25250000       7.95150000      -0.00002003       0.00002497      -0.00000922
C        3.53400000       5.30100000       8.83500000      -0.00000540      -0.00001246      -0.00000560
C        4.41750000       6.18450000       9.71850000       0.00000351      -0.00000565       0.00000979
C        5.30100000       7.06800000       8.83500000       0.00001675       0.00000172      -0.00000301
C        6.18450000       7.95150000       9.71850000       0.00000254       0.00000125      -0.00000984
C        7.06800000       8.83500000       8.83500000      -0.00000428      -0.00000100       0.00000048
C        7.95150000       9.71850000       9.71850000       0.00000000      -0.00000105       0.00000106
C        8.83500000      10.60200000       8.83500000       0.00000182      -0.00000262       0.00000252
C        9.71850000      11.48550000       9.71850000       0.00000124      -0.00000124       0.00000139
C       10.60200000      12.36900000       8.83500000       0.00000310       0.00000238       0.00000248
C       11.48550000      13.25250000       9.71850000       0.00000066      -0.00000127      -0.00000475
C        5.30100000       5.30100000      10.60200000      -0.00001258      -0.00001258      -0.00001406
C        6.18450000       6.18450000      11.48550000      -0.00000007      -0.00000007      -0.00027993
C        7.06800000       7.06800000      10.60200000       0.00001266       0.00001266      -0.00001549
C        7.95150000       7.95150000      11.48550000      -0.00000136      -0.00000136      -0.00002823
C        8.83500000       8.83500000      10.60200000      -0.00000262      -0.00000262       0.00000238
C        9.71850000       9.71850000      11.48550000      -0.00000124      -0.00000124       0.00000548
C       10.60200000      10.60200000      10.60200000      -0.00000000      -0.00000000      -0.00000000
C       11.48550000      11.48550000      11.48550000       0.00000124       0.00000124       0.00000139
C       12.36900000      12.36900000      10.60200000       0.00000253       0.00000253       0.00000238
C       13.25250000      13.25250000      11.48550000       0.00000143       0.00000143      -0.00002782
C        7.06800000       5.30100000      12.36900000       0.00000746      -0.00000666       0.00001712
C        7.95150000       6.18450000      13.25250000       0.00157610       0.00104293      -0.00138477
C        8.83500000       7.06800000      12.36900000       0.00000833      -0.00022371       0.00005186
C        9.71850000       7.95150000      13.25250000       0.00001919       0.00002498      -0.00001261
C       10.60200000       8.83500000      12.36900000      -0.00000682       0.00000238       0.00000561
C       11.48550000       9.71850000      13.25250000       0.00000093       0.00000121      -0.00000363
C       12.36900000      10.60200000      12.36900000       0.00000130       0.00000253       0.00000303
C       13.25250000      11.48550000      13.25250000      -0.00002688      -0.00002047      -0.00000752
C       14.13600000      12.36900000      12.36900000       0.00022161      -0.00000642       0.00005386
C       15.01950000      13.25250000      13.25250000      -0.00104311      -0.00157486      -0.00138444
C        0.00000000       7.06800000       7.06800000       0.00021588       0.00006704      -0.00003527
C        0.88350000       7.95150000       7.95150000      -0.00104054      -0.00160191      -0.00139445
C        1.76700000       8.83500000       7.06800000      -0.00000328      -0.00000336       0.00000848
C        2.65050000       9.71850000       7.95150000       0.00157610       0.00104188      -0.00138542
C        3.53400000      10.60200000       7.06800000       0.00000233      -0.00021167       0.00004523
C        4.41750000      11.48550000       7.95150000       0.00004629       0.00002449      -0.00001720
C        5.30100000      12.36900000       7.06800000      -0.00007790       0.00000653      -0.00008410
C        6.18450000      13.25250000       7.95150000      -0.00104161       0.00157147      -0.00138141
C        7.06800000      14.13600000       7.06800000      -0.00182199       0.00182643      -0.00888443
C        7.95150000      15.01950000       7.95150000      -0.00159737       0.00102121      -0.00139039
C        1.76700000       7.06800000       8.83500000      -0.00007855      -0.00000337      -0.00009067
C        2.65050000       7.95150000       9.71850000       0.00104275      -0.00104162       0.00072049
C        3.53400000       8.83500000       8.83500000       0.00000929       0.00007522      -0.00008680
C        4.41750000       9.71850000       9.71850000      -0.00000050      -0.00000105       0.00011865
C        5.30100000      10.60200000       8.83500000       0.00000657       0.00001603      -0.00000343
C        6.18450000      11.48550000       9.71850000      -0.00000566       0.00006708      -0.00006444
C        7.06800000      12.36900000       8.83500000       0.00022409       0.00000750       0.00005195
C        7.95150000      13.25250000       9.71850000       0.00000090      -0.00000003      -0.00003400
C        8.83500000      14.13600000       8.83500000      -0.00002011      -0.00023666       0.00005239
C        9.71850000      15.01950000       9.71850000      -0.00006668       0.00000482       0.00005896
C        3.53400000       7.06800000      10.60200000       0.00022089      -0.00021169      -0.00010682
C        4.41750000       7.95150000      11.48550000      -0.00004071       0.00004611      -0.00003685
C        5.30100000       8.83500000      10.60200000      -0.00002516       0.00001606      -0.00001001
C        6.18450000       9.71850000      11.48550000       0.00000353       0.00006627      -0.00005921
C        7.06800000      10.60200000      10.60200000       0.00000419      -0.00000268       0.00000216
C        7.95150000      11.48550000      11.48550000      -0.00000000      -0.00000106       0.00000105
C        8.83500000      12.36900000      10.60200000       0.00000310      -0.00000681       0.00000233
C        9.71850000      13.25250000      11.48550000       0.00000145       0.00000086       0.00000047
C       10.60200000      14.13600000      10.60200000      -0.00001049       0.00001259       0.00000263
C       11.48550000      15.01950000      11.48550000      -0.00009248       0.00001603      -0.00006726
C        5.30100000       7.06800000      12.36900000      -0.00000666       0.00000746       0.00001712
C        6.18450000       7.95150000      13.25250000       0.00104293       0.00157610      -0.00138477
C        7.06800000       8.83500000      12.36900000      -0.00022371       0.00000833       0.00005186
C        7.95150000       9.71850000      13.25250000       0.00002498       0.00001919      -0.00001261
C        8.83500000      10.60200000      12.36900000       0.00000238      -0.00000682       0.00000561
C        9.71850000      11.48550000      13.25250000       0.00000121       0.00000093      -0.00000363
C       10.60200000      12.36900000      12.36900000       0.00000253       0.00000130       0.00000303
C       11.48550000      13.25250000      13.25250000      -0.00002047      -0.00002688      -0.00000752
C       12.36900000      14.13600000      12.36900000      -0.00000642       0.00022161       0.00005386
C       13.25250000      15.01950000      13.25250000      -0.00157486      -0.00104311      -0.00138444
C        7.06800000       7.06800000      14.13600000       0.00185059       0.00185059      -0.00891274
C        7.95150000       7.95150000      15.01950000      -0.00104051      -0.00104051       0.00069225
C        8.83500000       8.83500000      14.13600000      -0.00023673      -0.00023673      -0.00011208
C        9.71850000       9.71850000      15.01950000      -0.00000441      -0.00000441      -0.00026651
C       10.60200000      10.60200000      14.13600000       0.00001258       0.00001258      -0.00001406
C       11.48550000      11.48550000      15.01950000       0.00000305       0.00000305      -0.00001440
C       12.36900000      12.36900000      14.13600000       0.00022153       0.00022153      -0.00009421
C       13.25250000      13.25250000      15.01950000       0.00104063       0.00104063       0.00072186
C       14.13600000      14.13600000      14.13600000      -0.00184797      -0.00184797      -0.00891512
C       15.01950000      15.01950000      15.01950000       0.00000124       0.00000124       0.04539219
